VARIABLES = X Y
ZONE I = 31, J = 51, F = POINT
0	0
0.0333333	0
0.0666667	0
0.1	0
0.133333	0
0.166667	0
0.2	0
0.233333	0
0.266667	0
0.3	0
0.333333	0
0.366667	0
0.4	0
0.433333	0
0.466667	0
0.5	0
0.533333	0
0.566667	0
0.6	0
0.633333	0
0.666667	0
0.7	0
0.733333	0
0.766667	0
0.8	0
0.833333	0
0.866667	0
0.9	0
0.933333	0
0.966667	0
1	0
0	7.89309e-07
0.0333333	7.89309e-07
0.0666667	7.89309e-07
0.1	7.89309e-07
0.133333	7.89309e-07
0.166667	7.89309e-07
0.2	7.89309e-07
0.233333	7.89309e-07
0.266667	7.89309e-07
0.3	7.89309e-07
0.333333	7.89309e-07
0.366667	7.89309e-07
0.4	7.89309e-07
0.433333	7.89309e-07
0.466667	7.89309e-07
0.5	7.89309e-07
0.533333	7.89309e-07
0.566667	7.89309e-07
0.6	7.89309e-07
0.633333	7.89309e-07
0.666667	7.89309e-07
0.7	7.89309e-07
0.733333	7.89309e-07
0.766667	7.89309e-07
0.8	7.89309e-07
0.833333	7.89309e-07
0.866667	7.89309e-07
0.9	7.89309e-07
0.933333	7.89309e-07
0.966667	7.89309e-07
1	7.89309e-07
0	4.73274e-06
0.0333333	4.73274e-06
0.0666667	4.73274e-06
0.1	4.73274e-06
0.133333	4.73274e-06
0.166667	4.73274e-06
0.2	4.73274e-06
0.233333	4.73274e-06
0.266667	4.73274e-06
0.3	4.73274e-06
0.333333	4.73274e-06
0.366667	4.73274e-06
0.4	4.73274e-06
0.433333	4.73274e-06
0.466667	4.73274e-06
0.5	4.73274e-06
0.533333	4.73274e-06
0.566667	4.73274e-06
0.6	4.73274e-06
0.633333	4.73274e-06
0.666667	4.73274e-06
0.7	4.73274e-06
0.733333	4.73274e-06
0.766667	4.73274e-06
0.8	4.73274e-06
0.833333	4.73274e-06
0.866667	4.73274e-06
0.9	4.73274e-06
0.933333	4.73274e-06
0.966667	4.73274e-06
1	4.73274e-06
0	1.57613e-05
0.0333333	1.57613e-05
0.0666667	1.57613e-05
0.1	1.57613e-05
0.133333	1.57613e-05
0.166667	1.57613e-05
0.2	1.57613e-05
0.233333	1.57613e-05
0.266667	1.57613e-05
0.3	1.57613e-05
0.333333	1.57613e-05
0.366667	1.57613e-05
0.4	1.57613e-05
0.433333	1.57613e-05
0.466667	1.57613e-05
0.5	1.57613e-05
0.533333	1.57613e-05
0.566667	1.57613e-05
0.6	1.57613e-05
0.633333	1.57613e-05
0.666667	1.57613e-05
0.7	1.57613e-05
0.733333	1.57613e-05
0.766667	1.57613e-05
0.8	1.57613e-05
0.833333	1.57613e-05
0.866667	1.57613e-05
0.9	1.57613e-05
0.933333	1.57613e-05
0.966667	1.57613e-05
1	1.57613e-05
0	3.93565e-05
0.0333333	3.93565e-05
0.0666667	3.93565e-05
0.1	3.93565e-05
0.133333	3.93565e-05
0.166667	3.93565e-05
0.2	3.93565e-05
0.233333	3.93565e-05
0.266667	3.93565e-05
0.3	3.93565e-05
0.333333	3.93565e-05
0.366667	3.93565e-05
0.4	3.93565e-05
0.433333	3.93565e-05
0.466667	3.93565e-05
0.5	3.93565e-05
0.533333	3.93565e-05
0.566667	3.93565e-05
0.6	3.93565e-05
0.633333	3.93565e-05
0.666667	3.93565e-05
0.7	3.93565e-05
0.733333	3.93565e-05
0.766667	3.93565e-05
0.8	3.93565e-05
0.833333	3.93565e-05
0.866667	3.93565e-05
0.9	3.93565e-05
0.933333	3.93565e-05
0.966667	3.93565e-05
1	3.93565e-05
0	8.25292e-05
0.0333333	8.25292e-05
0.0666667	8.25292e-05
0.1	8.25292e-05
0.133333	8.25292e-05
0.166667	8.25292e-05
0.2	8.25292e-05
0.233333	8.25292e-05
0.266667	8.25292e-05
0.3	8.25292e-05
0.333333	8.25292e-05
0.366667	8.25292e-05
0.4	8.25292e-05
0.433333	8.25292e-05
0.466667	8.25292e-05
0.5	8.25292e-05
0.533333	8.25292e-05
0.566667	8.25292e-05
0.6	8.25292e-05
0.633333	8.25292e-05
0.666667	8.25292e-05
0.7	8.25292e-05
0.733333	8.25292e-05
0.766667	8.25292e-05
0.8	8.25292e-05
0.833333	8.25292e-05
0.866667	8.25292e-05
0.9	8.25292e-05
0.933333	8.25292e-05
0.966667	8.25292e-05
1	8.25292e-05
0	0.000153791
0.0333333	0.000153791
0.0666667	0.000153791
0.1	0.000153791
0.133333	0.000153791
0.166667	0.000153791
0.2	0.000153791
0.233333	0.000153791
0.266667	0.000153791
0.3	0.000153791
0.333333	0.000153791
0.366667	0.000153791
0.4	0.000153791
0.433333	0.000153791
0.466667	0.000153791
0.5	0.000153791
0.533333	0.000153791
0.566667	0.000153791
0.6	0.000153791
0.633333	0.000153791
0.666667	0.000153791
0.7	0.000153791
0.733333	0.000153791
0.766667	0.000153791
0.8	0.000153791
0.833333	0.000153791
0.866667	0.000153791
0.9	0.000153791
0.933333	0.000153791
0.966667	0.000153791
1	0.000153791
0	0.000263122
0.0333333	0.000263122
0.0666667	0.000263122
0.1	0.000263122
0.133333	0.000263122
0.166667	0.000263122
0.2	0.000263122
0.233333	0.000263122
0.266667	0.000263122
0.3	0.000263122
0.333333	0.000263122
0.366667	0.000263122
0.4	0.000263122
0.433333	0.000263122
0.466667	0.000263122
0.5	0.000263122
0.533333	0.000263122
0.566667	0.000263122
0.6	0.000263122
0.633333	0.000263122
0.666667	0.000263122
0.7	0.000263122
0.733333	0.000263122
0.766667	0.000263122
0.8	0.000263122
0.833333	0.000263122
0.866667	0.000263122
0.9	0.000263122
0.933333	0.000263122
0.966667	0.000263122
1	0.000263122
0	0.000421931
0.0333333	0.000421931
0.0666667	0.000421931
0.1	0.000421931
0.133333	0.000421931
0.166667	0.000421931
0.2	0.000421931
0.233333	0.000421931
0.266667	0.000421931
0.3	0.000421931
0.333333	0.000421931
0.366667	0.000421931
0.4	0.000421931
0.433333	0.000421931
0.466667	0.000421931
0.5	0.000421931
0.533333	0.000421931
0.566667	0.000421931
0.6	0.000421931
0.633333	0.000421931
0.666667	0.000421931
0.7	0.000421931
0.733333	0.000421931
0.766667	0.000421931
0.8	0.000421931
0.833333	0.000421931
0.866667	0.000421931
0.9	0.000421931
0.933333	0.000421931
0.966667	0.000421931
1	0.000421931
0	0.000643008
0.0333333	0.000643008
0.0666667	0.000643008
0.1	0.000643008
0.133333	0.000643008
0.166667	0.000643008
0.2	0.000643008
0.233333	0.000643008
0.266667	0.000643008
0.3	0.000643008
0.333333	0.000643008
0.366667	0.000643008
0.4	0.000643008
0.433333	0.000643008
0.466667	0.000643008
0.5	0.000643008
0.533333	0.000643008
0.566667	0.000643008
0.6	0.000643008
0.633333	0.000643008
0.666667	0.000643008
0.7	0.000643008
0.733333	0.000643008
0.766667	0.000643008
0.8	0.000643008
0.833333	0.000643008
0.866667	0.000643008
0.9	0.000643008
0.933333	0.000643008
0.966667	0.000643008
1	0.000643008
0	0.000940479
0.0333333	0.000940479
0.0666667	0.000940479
0.1	0.000940479
0.133333	0.000940479
0.166667	0.000940479
0.2	0.000940479
0.233333	0.000940479
0.266667	0.000940479
0.3	0.000940479
0.333333	0.000940479
0.366667	0.000940479
0.4	0.000940479
0.433333	0.000940479
0.466667	0.000940479
0.5	0.000940479
0.533333	0.000940479
0.566667	0.000940479
0.6	0.000940479
0.633333	0.000940479
0.666667	0.000940479
0.7	0.000940479
0.733333	0.000940479
0.766667	0.000940479
0.8	0.000940479
0.833333	0.000940479
0.866667	0.000940479
0.9	0.000940479
0.933333	0.000940479
0.966667	0.000940479
1	0.000940479
0	0.00132974
0.0333333	0.00132974
0.0666667	0.00132974
0.1	0.00132974
0.133333	0.00132974
0.166667	0.00132974
0.2	0.00132974
0.233333	0.00132974
0.266667	0.00132974
0.3	0.00132974
0.333333	0.00132974
0.366667	0.00132974
0.4	0.00132974
0.433333	0.00132974
0.466667	0.00132974
0.5	0.00132974
0.533333	0.00132974
0.566667	0.00132974
0.6	0.00132974
0.633333	0.00132974
0.666667	0.00132974
0.7	0.00132974
0.733333	0.00132974
0.766667	0.00132974
0.8	0.00132974
0.833333	0.00132974
0.866667	0.00132974
0.9	0.00132974
0.933333	0.00132974
0.966667	0.00132974
1	0.00132974
0	0.00182742
0.0333333	0.00182742
0.0666667	0.00182742
0.1	0.00182742
0.133333	0.00182742
0.166667	0.00182742
0.2	0.00182742
0.233333	0.00182742
0.266667	0.00182742
0.3	0.00182742
0.333333	0.00182742
0.366667	0.00182742
0.4	0.00182742
0.433333	0.00182742
0.466667	0.00182742
0.5	0.00182742
0.533333	0.00182742
0.566667	0.00182742
0.6	0.00182742
0.633333	0.00182742
0.666667	0.00182742
0.7	0.00182742
0.733333	0.00182742
0.766667	0.00182742
0.8	0.00182742
0.833333	0.00182742
0.866667	0.00182742
0.9	0.00182742
0.933333	0.00182742
0.966667	0.00182742
1	0.00182742
0	0.00245128
0.0333333	0.00245128
0.0666667	0.00245128
0.1	0.00245128
0.133333	0.00245128
0.166667	0.00245128
0.2	0.00245128
0.233333	0.00245128
0.266667	0.00245128
0.3	0.00245128
0.333333	0.00245128
0.366667	0.00245128
0.4	0.00245128
0.433333	0.00245128
0.466667	0.00245128
0.5	0.00245128
0.533333	0.00245128
0.566667	0.00245128
0.6	0.00245128
0.633333	0.00245128
0.666667	0.00245128
0.7	0.00245128
0.733333	0.00245128
0.766667	0.00245128
0.8	0.00245128
0.833333	0.00245128
0.866667	0.00245128
0.9	0.00245128
0.933333	0.00245128
0.966667	0.00245128
1	0.00245128
0	0.00322017
0.0333333	0.00322017
0.0666667	0.00322017
0.1	0.00322017
0.133333	0.00322017
0.166667	0.00322017
0.2	0.00322017
0.233333	0.00322017
0.266667	0.00322017
0.3	0.00322017
0.333333	0.00322017
0.366667	0.00322017
0.4	0.00322017
0.433333	0.00322017
0.466667	0.00322017
0.5	0.00322017
0.533333	0.00322017
0.566667	0.00322017
0.6	0.00322017
0.633333	0.00322017
0.666667	0.00322017
0.7	0.00322017
0.733333	0.00322017
0.766667	0.00322017
0.8	0.00322017
0.833333	0.00322017
0.866667	0.00322017
0.9	0.00322017
0.933333	0.00322017
0.966667	0.00322017
1	0.00322017
0	0.00415395
0.0333333	0.00415395
0.0666667	0.00415395
0.1	0.00415395
0.133333	0.00415395
0.166667	0.00415395
0.2	0.00415395
0.233333	0.00415395
0.266667	0.00415395
0.3	0.00415395
0.333333	0.00415395
0.366667	0.00415395
0.4	0.00415395
0.433333	0.00415395
0.466667	0.00415395
0.5	0.00415395
0.533333	0.00415395
0.566667	0.00415395
0.6	0.00415395
0.633333	0.00415395
0.666667	0.00415395
0.7	0.00415395
0.733333	0.00415395
0.766667	0.00415395
0.8	0.00415395
0.833333	0.00415395
0.866667	0.00415395
0.9	0.00415395
0.933333	0.00415395
0.966667	0.00415395
1	0.00415395
0	0.00527339
0.0333333	0.00527339
0.0666667	0.00527339
0.1	0.00527339
0.133333	0.00527339
0.166667	0.00527339
0.2	0.00527339
0.233333	0.00527339
0.266667	0.00527339
0.3	0.00527339
0.333333	0.00527339
0.366667	0.00527339
0.4	0.00527339
0.433333	0.00527339
0.466667	0.00527339
0.5	0.00527339
0.533333	0.00527339
0.566667	0.00527339
0.6	0.00527339
0.633333	0.00527339
0.666667	0.00527339
0.7	0.00527339
0.733333	0.00527339
0.766667	0.00527339
0.8	0.00527339
0.833333	0.00527339
0.866667	0.00527339
0.9	0.00527339
0.933333	0.00527339
0.966667	0.00527339
1	0.00527339
0	0.00660013
0.0333333	0.00660013
0.0666667	0.00660013
0.1	0.00660013
0.133333	0.00660013
0.166667	0.00660013
0.2	0.00660013
0.233333	0.00660013
0.266667	0.00660013
0.3	0.00660013
0.333333	0.00660013
0.366667	0.00660013
0.4	0.00660013
0.433333	0.00660013
0.466667	0.00660013
0.5	0.00660013
0.533333	0.00660013
0.566667	0.00660013
0.6	0.00660013
0.633333	0.00660013
0.666667	0.00660013
0.7	0.00660013
0.733333	0.00660013
0.766667	0.00660013
0.8	0.00660013
0.833333	0.00660013
0.866667	0.00660013
0.9	0.00660013
0.933333	0.00660013
0.966667	0.00660013
1	0.00660013
0	0.00815657
0.0333333	0.00815657
0.0666667	0.00815657
0.1	0.00815657
0.133333	0.00815657
0.166667	0.00815657
0.2	0.00815657
0.233333	0.00815657
0.266667	0.00815657
0.3	0.00815657
0.333333	0.00815657
0.366667	0.00815657
0.4	0.00815657
0.433333	0.00815657
0.466667	0.00815657
0.5	0.00815657
0.533333	0.00815657
0.566667	0.00815657
0.6	0.00815657
0.633333	0.00815657
0.666667	0.00815657
0.7	0.00815657
0.733333	0.00815657
0.766667	0.00815657
0.8	0.00815657
0.833333	0.00815657
0.866667	0.00815657
0.9	0.00815657
0.933333	0.00815657
0.966667	0.00815657
1	0.00815657
0	0.00996575
0.0333333	0.00996575
0.0666667	0.00996575
0.1	0.00996575
0.133333	0.00996575
0.166667	0.00996575
0.2	0.00996575
0.233333	0.00996575
0.266667	0.00996575
0.3	0.00996575
0.333333	0.00996575
0.366667	0.00996575
0.4	0.00996575
0.433333	0.00996575
0.466667	0.00996575
0.5	0.00996575
0.533333	0.00996575
0.566667	0.00996575
0.6	0.00996575
0.633333	0.00996575
0.666667	0.00996575
0.7	0.00996575
0.733333	0.00996575
0.766667	0.00996575
0.8	0.00996575
0.833333	0.00996575
0.866667	0.00996575
0.9	0.00996575
0.933333	0.00996575
0.966667	0.00996575
1	0.00996575
0	0.0120513
0.0333333	0.0120513
0.0666667	0.0120513
0.1	0.0120513
0.133333	0.0120513
0.166667	0.0120513
0.2	0.0120513
0.233333	0.0120513
0.266667	0.0120513
0.3	0.0120513
0.333333	0.0120513
0.366667	0.0120513
0.4	0.0120513
0.433333	0.0120513
0.466667	0.0120513
0.5	0.0120513
0.533333	0.0120513
0.566667	0.0120513
0.6	0.0120513
0.633333	0.0120513
0.666667	0.0120513
0.7	0.0120513
0.733333	0.0120513
0.766667	0.0120513
0.8	0.0120513
0.833333	0.0120513
0.866667	0.0120513
0.9	0.0120513
0.933333	0.0120513
0.966667	0.0120513
1	0.0120513
0	0.0144374
0.0333333	0.0144374
0.0666667	0.0144374
0.1	0.0144374
0.133333	0.0144374
0.166667	0.0144374
0.2	0.0144374
0.233333	0.0144374
0.266667	0.0144374
0.3	0.0144374
0.333333	0.0144374
0.366667	0.0144374
0.4	0.0144374
0.433333	0.0144374
0.466667	0.0144374
0.5	0.0144374
0.533333	0.0144374
0.566667	0.0144374
0.6	0.0144374
0.633333	0.0144374
0.666667	0.0144374
0.7	0.0144374
0.733333	0.0144374
0.766667	0.0144374
0.8	0.0144374
0.833333	0.0144374
0.866667	0.0144374
0.9	0.0144374
0.933333	0.0144374
0.966667	0.0144374
1	0.0144374
0	0.0171486
0.0333333	0.0171486
0.0666667	0.0171486
0.1	0.0171486
0.133333	0.0171486
0.166667	0.0171486
0.2	0.0171486
0.233333	0.0171486
0.266667	0.0171486
0.3	0.0171486
0.333333	0.0171486
0.366667	0.0171486
0.4	0.0171486
0.433333	0.0171486
0.466667	0.0171486
0.5	0.0171486
0.533333	0.0171486
0.566667	0.0171486
0.6	0.0171486
0.633333	0.0171486
0.666667	0.0171486
0.7	0.0171486
0.733333	0.0171486
0.766667	0.0171486
0.8	0.0171486
0.833333	0.0171486
0.866667	0.0171486
0.9	0.0171486
0.933333	0.0171486
0.966667	0.0171486
1	0.0171486
0	0.0202096
0.0333333	0.0202096
0.0666667	0.0202096
0.1	0.0202096
0.133333	0.0202096
0.166667	0.0202096
0.2	0.0202096
0.233333	0.0202096
0.266667	0.0202096
0.3	0.0202096
0.333333	0.0202096
0.366667	0.0202096
0.4	0.0202096
0.433333	0.0202096
0.466667	0.0202096
0.5	0.0202096
0.533333	0.0202096
0.566667	0.0202096
0.6	0.0202096
0.633333	0.0202096
0.666667	0.0202096
0.7	0.0202096
0.733333	0.0202096
0.766667	0.0202096
0.8	0.0202096
0.833333	0.0202096
0.866667	0.0202096
0.9	0.0202096
0.933333	0.0202096
0.966667	0.0202096
1	0.0202096
0	0.0236455
0.0333333	0.0236455
0.0666667	0.0236455
0.1	0.0236455
0.133333	0.0236455
0.166667	0.0236455
0.2	0.0236455
0.233333	0.0236455
0.266667	0.0236455
0.3	0.0236455
0.333333	0.0236455
0.366667	0.0236455
0.4	0.0236455
0.433333	0.0236455
0.466667	0.0236455
0.5	0.0236455
0.533333	0.0236455
0.566667	0.0236455
0.6	0.0236455
0.633333	0.0236455
0.666667	0.0236455
0.7	0.0236455
0.733333	0.0236455
0.766667	0.0236455
0.8	0.0236455
0.833333	0.0236455
0.866667	0.0236455
0.9	0.0236455
0.933333	0.0236455
0.966667	0.0236455
1	0.0236455
0	0.0274814
0.0333333	0.0274814
0.0666667	0.0274814
0.1	0.0274814
0.133333	0.0274814
0.166667	0.0274814
0.2	0.0274814
0.233333	0.0274814
0.266667	0.0274814
0.3	0.0274814
0.333333	0.0274814
0.366667	0.0274814
0.4	0.0274814
0.433333	0.0274814
0.466667	0.0274814
0.5	0.0274814
0.533333	0.0274814
0.566667	0.0274814
0.6	0.0274814
0.633333	0.0274814
0.666667	0.0274814
0.7	0.0274814
0.733333	0.0274814
0.766667	0.0274814
0.8	0.0274814
0.833333	0.0274814
0.866667	0.0274814
0.9	0.0274814
0.933333	0.0274814
0.966667	0.0274814
1	0.0274814
0	0.0317424
0.0333333	0.0317424
0.0666667	0.0317424
0.1	0.0317424
0.133333	0.0317424
0.166667	0.0317424
0.2	0.0317424
0.233333	0.0317424
0.266667	0.0317424
0.3	0.0317424
0.333333	0.0317424
0.366667	0.0317424
0.4	0.0317424
0.433333	0.0317424
0.466667	0.0317424
0.5	0.0317424
0.533333	0.0317424
0.566667	0.0317424
0.6	0.0317424
0.633333	0.0317424
0.666667	0.0317424
0.7	0.0317424
0.733333	0.0317424
0.766667	0.0317424
0.8	0.0317424
0.833333	0.0317424
0.866667	0.0317424
0.9	0.0317424
0.933333	0.0317424
0.966667	0.0317424
1	0.0317424
0	0.0364535
0.0333333	0.0364535
0.0666667	0.0364535
0.1	0.0364535
0.133333	0.0364535
0.166667	0.0364535
0.2	0.0364535
0.233333	0.0364535
0.266667	0.0364535
0.3	0.0364535
0.333333	0.0364535
0.366667	0.0364535
0.4	0.0364535
0.433333	0.0364535
0.466667	0.0364535
0.5	0.0364535
0.533333	0.0364535
0.566667	0.0364535
0.6	0.0364535
0.633333	0.0364535
0.666667	0.0364535
0.7	0.0364535
0.733333	0.0364535
0.766667	0.0364535
0.8	0.0364535
0.833333	0.0364535
0.866667	0.0364535
0.9	0.0364535
0.933333	0.0364535
0.966667	0.0364535
1	0.0364535
0	0.0416396
0.0333333	0.0416396
0.0666667	0.0416396
0.1	0.0416396
0.133333	0.0416396
0.166667	0.0416396
0.2	0.0416396
0.233333	0.0416396
0.266667	0.0416396
0.3	0.0416396
0.333333	0.0416396
0.366667	0.0416396
0.4	0.0416396
0.433333	0.0416396
0.466667	0.0416396
0.5	0.0416396
0.533333	0.0416396
0.566667	0.0416396
0.6	0.0416396
0.633333	0.0416396
0.666667	0.0416396
0.7	0.0416396
0.733333	0.0416396
0.766667	0.0416396
0.8	0.0416396
0.833333	0.0416396
0.866667	0.0416396
0.9	0.0416396
0.933333	0.0416396
0.966667	0.0416396
1	0.0416396
0	0.0473252
0.0333333	0.0473252
0.0666667	0.0473252
0.1	0.0473252
0.133333	0.0473252
0.166667	0.0473252
0.2	0.0473252
0.233333	0.0473252
0.266667	0.0473252
0.3	0.0473252
0.333333	0.0473252
0.366667	0.0473252
0.4	0.0473252
0.433333	0.0473252
0.466667	0.0473252
0.5	0.0473252
0.533333	0.0473252
0.566667	0.0473252
0.6	0.0473252
0.633333	0.0473252
0.666667	0.0473252
0.7	0.0473252
0.733333	0.0473252
0.766667	0.0473252
0.8	0.0473252
0.833333	0.0473252
0.866667	0.0473252
0.9	0.0473252
0.933333	0.0473252
0.966667	0.0473252
1	0.0473252
0	0.0535344
0.0333333	0.0535344
0.0666667	0.0535344
0.1	0.0535344
0.133333	0.0535344
0.166667	0.0535344
0.2	0.0535344
0.233333	0.0535344
0.266667	0.0535344
0.3	0.0535344
0.333333	0.0535344
0.366667	0.0535344
0.4	0.0535344
0.433333	0.0535344
0.466667	0.0535344
0.5	0.0535344
0.533333	0.0535344
0.566667	0.0535344
0.6	0.0535344
0.633333	0.0535344
0.666667	0.0535344
0.7	0.0535344
0.733333	0.0535344
0.766667	0.0535344
0.8	0.0535344
0.833333	0.0535344
0.866667	0.0535344
0.9	0.0535344
0.933333	0.0535344
0.966667	0.0535344
1	0.0535344
0	0.0602908
0.0333333	0.0602908
0.0666667	0.0602908
0.1	0.0602908
0.133333	0.0602908
0.166667	0.0602908
0.2	0.0602908
0.233333	0.0602908
0.266667	0.0602908
0.3	0.0602908
0.333333	0.0602908
0.366667	0.0602908
0.4	0.0602908
0.433333	0.0602908
0.466667	0.0602908
0.5	0.0602908
0.533333	0.0602908
0.566667	0.0602908
0.6	0.0602908
0.633333	0.0602908
0.666667	0.0602908
0.7	0.0602908
0.733333	0.0602908
0.766667	0.0602908
0.8	0.0602908
0.833333	0.0602908
0.866667	0.0602908
0.9	0.0602908
0.933333	0.0602908
0.966667	0.0602908
1	0.0602908
0	0.0676176
0.0333333	0.0676176
0.0666667	0.0676176
0.1	0.0676176
0.133333	0.0676176
0.166667	0.0676176
0.2	0.0676176
0.233333	0.0676176
0.266667	0.0676176
0.3	0.0676176
0.333333	0.0676176
0.366667	0.0676176
0.4	0.0676176
0.433333	0.0676176
0.466667	0.0676176
0.5	0.0676176
0.533333	0.0676176
0.566667	0.0676176
0.6	0.0676176
0.633333	0.0676176
0.666667	0.0676176
0.7	0.0676176
0.733333	0.0676176
0.766667	0.0676176
0.8	0.0676176
0.833333	0.0676176
0.866667	0.0676176
0.9	0.0676176
0.933333	0.0676176
0.966667	0.0676176
1	0.0676176
0	0.075537
0.0333333	0.075537
0.0666667	0.075537
0.1	0.075537
0.133333	0.075537
0.166667	0.075537
0.2	0.075537
0.233333	0.075537
0.266667	0.075537
0.3	0.075537
0.333333	0.075537
0.366667	0.075537
0.4	0.075537
0.433333	0.075537
0.466667	0.075537
0.5	0.075537
0.533333	0.075537
0.566667	0.075537
0.6	0.075537
0.633333	0.075537
0.666667	0.075537
0.7	0.075537
0.733333	0.075537
0.766667	0.075537
0.8	0.075537
0.833333	0.075537
0.866667	0.075537
0.9	0.075537
0.933333	0.075537
0.966667	0.075537
1	0.075537
0	0.0840708
0.0333333	0.0840708
0.0666667	0.0840708
0.1	0.0840708
0.133333	0.0840708
0.166667	0.0840708
0.2	0.0840708
0.233333	0.0840708
0.266667	0.0840708
0.3	0.0840708
0.333333	0.0840708
0.366667	0.0840708
0.4	0.0840708
0.433333	0.0840708
0.466667	0.0840708
0.5	0.0840708
0.533333	0.0840708
0.566667	0.0840708
0.6	0.0840708
0.633333	0.0840708
0.666667	0.0840708
0.7	0.0840708
0.733333	0.0840708
0.766667	0.0840708
0.8	0.0840708
0.833333	0.0840708
0.866667	0.0840708
0.9	0.0840708
0.933333	0.0840708
0.966667	0.0840708
1	0.0840708
0	0.0932397
0.0333333	0.0932397
0.0666667	0.0932397
0.1	0.0932397
0.133333	0.0932397
0.166667	0.0932397
0.2	0.0932397
0.233333	0.0932397
0.266667	0.0932397
0.3	0.0932397
0.333333	0.0932397
0.366667	0.0932397
0.4	0.0932397
0.433333	0.0932397
0.466667	0.0932397
0.5	0.0932397
0.533333	0.0932397
0.566667	0.0932397
0.6	0.0932397
0.633333	0.0932397
0.666667	0.0932397
0.7	0.0932397
0.733333	0.0932397
0.766667	0.0932397
0.8	0.0932397
0.833333	0.0932397
0.866667	0.0932397
0.9	0.0932397
0.933333	0.0932397
0.966667	0.0932397
1	0.0932397
0	0.103064
0.0333333	0.103064
0.0666667	0.103064
0.1	0.103064
0.133333	0.103064
0.166667	0.103064
0.2	0.103064
0.233333	0.103064
0.266667	0.103064
0.3	0.103064
0.333333	0.103064
0.366667	0.103064
0.4	0.103064
0.433333	0.103064
0.466667	0.103064
0.5	0.103064
0.533333	0.103064
0.566667	0.103064
0.6	0.103064
0.633333	0.103064
0.666667	0.103064
0.7	0.103064
0.733333	0.103064
0.766667	0.103064
0.8	0.103064
0.833333	0.103064
0.866667	0.103064
0.9	0.103064
0.933333	0.103064
0.966667	0.103064
1	0.103064
0	0.113561
0.0333333	0.113561
0.0666667	0.113561
0.1	0.113561
0.133333	0.113561
0.166667	0.113561
0.2	0.113561
0.233333	0.113561
0.266667	0.113561
0.3	0.113561
0.333333	0.113561
0.366667	0.113561
0.4	0.113561
0.433333	0.113561
0.466667	0.113561
0.5	0.113561
0.533333	0.113561
0.566667	0.113561
0.6	0.113561
0.633333	0.113561
0.666667	0.113561
0.7	0.113561
0.733333	0.113561
0.766667	0.113561
0.8	0.113561
0.833333	0.113561
0.866667	0.113561
0.9	0.113561
0.933333	0.113561
0.966667	0.113561
1	0.113561
0	0.12475
0.0333333	0.12475
0.0666667	0.12475
0.1	0.12475
0.133333	0.12475
0.166667	0.12475
0.2	0.12475
0.233333	0.12475
0.266667	0.12475
0.3	0.12475
0.333333	0.12475
0.366667	0.12475
0.4	0.12475
0.433333	0.12475
0.466667	0.12475
0.5	0.12475
0.533333	0.12475
0.566667	0.12475
0.6	0.12475
0.633333	0.12475
0.666667	0.12475
0.7	0.12475
0.733333	0.12475
0.766667	0.12475
0.8	0.12475
0.833333	0.12475
0.866667	0.12475
0.9	0.12475
0.933333	0.12475
0.966667	0.12475
1	0.12475
0	0.136648
0.0333333	0.136648
0.0666667	0.136648
0.1	0.136648
0.133333	0.136648
0.166667	0.136648
0.2	0.136648
0.233333	0.136648
0.266667	0.136648
0.3	0.136648
0.333333	0.136648
0.366667	0.136648
0.4	0.136648
0.433333	0.136648
0.466667	0.136648
0.5	0.136648
0.533333	0.136648
0.566667	0.136648
0.6	0.136648
0.633333	0.136648
0.666667	0.136648
0.7	0.136648
0.733333	0.136648
0.766667	0.136648
0.8	0.136648
0.833333	0.136648
0.866667	0.136648
0.9	0.136648
0.933333	0.136648
0.966667	0.136648
1	0.136648
0	0.149269
0.0333333	0.149269
0.0666667	0.149269
0.1	0.149269
0.133333	0.149269
0.166667	0.149269
0.2	0.149269
0.233333	0.149269
0.266667	0.149269
0.3	0.149269
0.333333	0.149269
0.366667	0.149269
0.4	0.149269
0.433333	0.149269
0.466667	0.149269
0.5	0.149269
0.533333	0.149269
0.566667	0.149269
0.6	0.149269
0.633333	0.149269
0.666667	0.149269
0.7	0.149269
0.733333	0.149269
0.766667	0.149269
0.8	0.149269
0.833333	0.149269
0.866667	0.149269
0.9	0.149269
0.933333	0.149269
0.966667	0.149269
1	0.149269
0	0.162628
0.0333333	0.162628
0.0666667	0.162628
0.1	0.162628
0.133333	0.162628
0.166667	0.162628
0.2	0.162628
0.233333	0.162628
0.266667	0.162628
0.3	0.162628
0.333333	0.162628
0.366667	0.162628
0.4	0.162628
0.433333	0.162628
0.466667	0.162628
0.5	0.162628
0.533333	0.162628
0.566667	0.162628
0.6	0.162628
0.633333	0.162628
0.666667	0.162628
0.7	0.162628
0.733333	0.162628
0.766667	0.162628
0.8	0.162628
0.833333	0.162628
0.866667	0.162628
0.9	0.162628
0.933333	0.162628
0.966667	0.162628
1	0.162628
0	0.176737
0.0333333	0.176737
0.0666667	0.176737
0.1	0.176737
0.133333	0.176737
0.166667	0.176737
0.2	0.176737
0.233333	0.176737
0.266667	0.176737
0.3	0.176737
0.333333	0.176737
0.366667	0.176737
0.4	0.176737
0.433333	0.176737
0.466667	0.176737
0.5	0.176737
0.533333	0.176737
0.566667	0.176737
0.6	0.176737
0.633333	0.176737
0.666667	0.176737
0.7	0.176737
0.733333	0.176737
0.766667	0.176737
0.8	0.176737
0.833333	0.176737
0.866667	0.176737
0.9	0.176737
0.933333	0.176737
0.966667	0.176737
1	0.176737
0	0.191608
0.0333333	0.191608
0.0666667	0.191608
0.1	0.191608
0.133333	0.191608
0.166667	0.191608
0.2	0.191608
0.233333	0.191608
0.266667	0.191608
0.3	0.191608
0.333333	0.191608
0.366667	0.191608
0.4	0.191608
0.433333	0.191608
0.466667	0.191608
0.5	0.191608
0.533333	0.191608
0.566667	0.191608
0.6	0.191608
0.633333	0.191608
0.666667	0.191608
0.7	0.191608
0.733333	0.191608
0.766667	0.191608
0.8	0.191608
0.833333	0.191608
0.866667	0.191608
0.9	0.191608
0.933333	0.191608
0.966667	0.191608
1	0.191608
0	0.207252
0.0333333	0.207252
0.0666667	0.207252
0.1	0.207252
0.133333	0.207252
0.166667	0.207252
0.2	0.207252
0.233333	0.207252
0.266667	0.207252
0.3	0.207252
0.333333	0.207252
0.366667	0.207252
0.4	0.207252
0.433333	0.207252
0.466667	0.207252
0.5	0.207252
0.533333	0.207252
0.566667	0.207252
0.6	0.207252
0.633333	0.207252
0.666667	0.207252
0.7	0.207252
0.733333	0.207252
0.766667	0.207252
0.8	0.207252
0.833333	0.207252
0.866667	0.207252
0.9	0.207252
0.933333	0.207252
0.966667	0.207252
1	0.207252
0	0.223675
0.0333333	0.223675
0.0666667	0.223675
0.1	0.223675
0.133333	0.223675
0.166667	0.223675
0.2	0.223675
0.233333	0.223675
0.266667	0.223675
0.3	0.223675
0.333333	0.223675
0.366667	0.223675
0.4	0.223675
0.433333	0.223675
0.466667	0.223675
0.5	0.223675
0.533333	0.223675
0.566667	0.223675
0.6	0.223675
0.633333	0.223675
0.666667	0.223675
0.7	0.223675
0.733333	0.223675
0.766667	0.223675
0.8	0.223675
0.833333	0.223675
0.866667	0.223675
0.9	0.223675
0.933333	0.223675
0.966667	0.223675
1	0.223675
0	0.240886
0.0333333	0.240886
0.0666667	0.240886
0.1	0.240886
0.133333	0.240886
0.166667	0.240886
0.2	0.240886
0.233333	0.240886
0.266667	0.240886
0.3	0.240886
0.333333	0.240886
0.366667	0.240886
0.4	0.240886
0.433333	0.240886
0.466667	0.240886
0.5	0.240886
0.533333	0.240886
0.566667	0.240886
0.6	0.240886
0.633333	0.240886
0.666667	0.240886
0.7	0.240886
0.733333	0.240886
0.766667	0.240886
0.8	0.240886
0.833333	0.240886
0.866667	0.240886
0.9	0.240886
0.933333	0.240886
0.966667	0.240886
1	0.240886
0	0.25889
0.0333333	0.25889
0.0666667	0.25889
0.1	0.25889
0.133333	0.25889
0.166667	0.25889
0.2	0.25889
0.233333	0.25889
0.266667	0.25889
0.3	0.25889
0.333333	0.25889
0.366667	0.25889
0.4	0.25889
0.433333	0.25889
0.466667	0.25889
0.5	0.25889
0.533333	0.25889
0.566667	0.25889
0.6	0.25889
0.633333	0.25889
0.666667	0.25889
0.7	0.25889
0.733333	0.25889
0.766667	0.25889
0.8	0.25889
0.833333	0.25889
0.866667	0.25889
0.9	0.25889
0.933333	0.25889
0.966667	0.25889
1	0.25889
0	0.277691
0.0333333	0.277691
0.0666667	0.277691
0.1	0.277691
0.133333	0.277691
0.166667	0.277691
0.2	0.277691
0.233333	0.277691
0.266667	0.277691
0.3	0.277691
0.333333	0.277691
0.366667	0.277691
0.4	0.277691
0.433333	0.277691
0.466667	0.277691
0.5	0.277691
0.533333	0.277691
0.566667	0.277691
0.6	0.277691
0.633333	0.277691
0.666667	0.277691
0.7	0.277691
0.733333	0.277691
0.766667	0.277691
0.8	0.277691
0.833333	0.277691
0.866667	0.277691
0.9	0.277691
0.933333	0.277691
0.966667	0.277691
1	0.277691
0	0.297291
0.0333333	0.297291
0.0666667	0.297291
0.1	0.297291
0.133333	0.297291
0.166667	0.297291
0.2	0.297291
0.233333	0.297291
0.266667	0.297291
0.3	0.297291
0.333333	0.297291
0.366667	0.297291
0.4	0.297291
0.433333	0.297291
0.466667	0.297291
0.5	0.297291
0.533333	0.297291
0.566667	0.297291
0.6	0.297291
0.633333	0.297291
0.666667	0.297291
0.7	0.297291
0.733333	0.297291
0.766667	0.297291
0.8	0.297291
0.833333	0.297291
0.866667	0.297291
0.9	0.297291
0.933333	0.297291
0.966667	0.297291
1	0.297291
0	0.317691
0.0333333	0.317691
0.0666667	0.317691
0.1	0.317691
0.133333	0.317691
0.166667	0.317691
0.2	0.317691
0.233333	0.317691
0.266667	0.317691
0.3	0.317691
0.333333	0.317691
0.366667	0.317691
0.4	0.317691
0.433333	0.317691
0.466667	0.317691
0.5	0.317691
0.533333	0.317691
0.566667	0.317691
0.6	0.317691
0.633333	0.317691
0.666667	0.317691
0.7	0.317691
0.733333	0.317691
0.766667	0.317691
0.8	0.317691
0.833333	0.317691
0.866667	0.317691
0.9	0.317691
0.933333	0.317691
0.966667	0.317691
1	0.317691
