VARIABLES = X Y
ZONE I = 31, J = 51, F = POINT
0	0
0.0333333	0
0.0666667	0
0.1	0
0.133333	0
0.166667	0
0.2	0
0.233333	0
0.266667	0
0.3	0
0.333333	0
0.366667	0
0.4	0
0.433333	0
0.466667	0
0.5	0
0.533333	0
0.566667	0
0.6	0
0.633333	0
0.666667	0
0.7	0
0.733333	0
0.766667	0
0.8	0
0.833333	0
0.866667	0
0.9	0
0.933333	0
0.966667	0
1	0
0	0.112907
0.0333333	0.112907
0.0666667	0.112907
0.1	0.112907
0.133333	0.112907
0.166667	0.112907
0.2	0.112907
0.233333	0.112907
0.266667	0.112907
0.3	0.112907
0.333333	0.112907
0.366667	0.112907
0.4	0.112907
0.433333	0.112907
0.466667	0.112907
0.5	0.112907
0.533333	0.112907
0.566667	0.112907
0.6	0.112907
0.633333	0.112907
0.666667	0.112907
0.7	0.112907
0.733333	0.112907
0.766667	0.112907
0.8	0.112907
0.833333	0.112907
0.866667	0.112907
0.9	0.112907
0.933333	0.112907
0.966667	0.112907
1	0.112907
0	0.216965
0.0333333	0.216965
0.0666667	0.216965
0.1	0.216965
0.133333	0.216965
0.166667	0.216965
0.2	0.216965
0.233333	0.216965
0.266667	0.216965
0.3	0.216965
0.333333	0.216965
0.366667	0.216965
0.4	0.216965
0.433333	0.216965
0.466667	0.216965
0.5	0.216965
0.533333	0.216965
0.566667	0.216965
0.6	0.216965
0.633333	0.216965
0.666667	0.216965
0.7	0.216965
0.733333	0.216965
0.766667	0.216965
0.8	0.216965
0.833333	0.216965
0.866667	0.216965
0.9	0.216965
0.933333	0.216965
0.966667	0.216965
1	0.216965
0	0.312537
0.0333333	0.312537
0.0666667	0.312537
0.1	0.312537
0.133333	0.312537
0.166667	0.312537
0.2	0.312537
0.233333	0.312537
0.266667	0.312537
0.3	0.312537
0.333333	0.312537
0.366667	0.312537
0.4	0.312537
0.433333	0.312537
0.466667	0.312537
0.5	0.312537
0.533333	0.312537
0.566667	0.312537
0.6	0.312537
0.633333	0.312537
0.666667	0.312537
0.7	0.312537
0.733333	0.312537
0.766667	0.312537
0.8	0.312537
0.833333	0.312537
0.866667	0.312537
0.9	0.312537
0.933333	0.312537
0.966667	0.312537
1	0.312537
0	0.399982
0.0333333	0.399982
0.0666667	0.399982
0.1	0.399982
0.133333	0.399982
0.166667	0.399982
0.2	0.399982
0.233333	0.399982
0.266667	0.399982
0.3	0.399982
0.333333	0.399982
0.366667	0.399982
0.4	0.399982
0.433333	0.399982
0.466667	0.399982
0.5	0.399982
0.533333	0.399982
0.566667	0.399982
0.6	0.399982
0.633333	0.399982
0.666667	0.399982
0.7	0.399982
0.733333	0.399982
0.766667	0.399982
0.8	0.399982
0.833333	0.399982
0.866667	0.399982
0.9	0.399982
0.933333	0.399982
0.966667	0.399982
1	0.399982
0	0.479662
0.0333333	0.479662
0.0666667	0.479662
0.1	0.479662
0.133333	0.479662
0.166667	0.479662
0.2	0.479662
0.233333	0.479662
0.266667	0.479662
0.3	0.479662
0.333333	0.479662
0.366667	0.479662
0.4	0.479662
0.433333	0.479662
0.466667	0.479662
0.5	0.479662
0.533333	0.479662
0.566667	0.479662
0.6	0.479662
0.633333	0.479662
0.666667	0.479662
0.7	0.479662
0.733333	0.479662
0.766667	0.479662
0.8	0.479662
0.833333	0.479662
0.866667	0.479662
0.9	0.479662
0.933333	0.479662
0.966667	0.479662
1	0.479662
0	0.551939
0.0333333	0.551939
0.0666667	0.551939
0.1	0.551939
0.133333	0.551939
0.166667	0.551939
0.2	0.551939
0.233333	0.551939
0.266667	0.551939
0.3	0.551939
0.333333	0.551939
0.366667	0.551939
0.4	0.551939
0.433333	0.551939
0.466667	0.551939
0.5	0.551939
0.533333	0.551939
0.566667	0.551939
0.6	0.551939
0.633333	0.551939
0.666667	0.551939
0.7	0.551939
0.733333	0.551939
0.766667	0.551939
0.8	0.551939
0.833333	0.551939
0.866667	0.551939
0.9	0.551939
0.933333	0.551939
0.966667	0.551939
1	0.551939
0	0.617173
0.0333333	0.617173
0.0666667	0.617173
0.1	0.617173
0.133333	0.617173
0.166667	0.617173
0.2	0.617173
0.233333	0.617173
0.266667	0.617173
0.3	0.617173
0.333333	0.617173
0.366667	0.617173
0.4	0.617173
0.433333	0.617173
0.466667	0.617173
0.5	0.617173
0.533333	0.617173
0.566667	0.617173
0.6	0.617173
0.633333	0.617173
0.666667	0.617173
0.7	0.617173
0.733333	0.617173
0.766667	0.617173
0.8	0.617173
0.833333	0.617173
0.866667	0.617173
0.9	0.617173
0.933333	0.617173
0.966667	0.617173
1	0.617173
0	0.675726
0.0333333	0.675726
0.0666667	0.675726
0.1	0.675726
0.133333	0.675726
0.166667	0.675726
0.2	0.675726
0.233333	0.675726
0.266667	0.675726
0.3	0.675726
0.333333	0.675726
0.366667	0.675726
0.4	0.675726
0.433333	0.675726
0.466667	0.675726
0.5	0.675726
0.533333	0.675726
0.566667	0.675726
0.6	0.675726
0.633333	0.675726
0.666667	0.675726
0.7	0.675726
0.733333	0.675726
0.766667	0.675726
0.8	0.675726
0.833333	0.675726
0.866667	0.675726
0.9	0.675726
0.933333	0.675726
0.966667	0.675726
1	0.675726
0	0.727958
0.0333333	0.727958
0.0666667	0.727958
0.1	0.727958
0.133333	0.727958
0.166667	0.727958
0.2	0.727958
0.233333	0.727958
0.266667	0.727958
0.3	0.727958
0.333333	0.727958
0.366667	0.727958
0.4	0.727958
0.433333	0.727958
0.466667	0.727958
0.5	0.727958
0.533333	0.727958
0.566667	0.727958
0.6	0.727958
0.633333	0.727958
0.666667	0.727958
0.7	0.727958
0.733333	0.727958
0.766667	0.727958
0.8	0.727958
0.833333	0.727958
0.866667	0.727958
0.9	0.727958
0.933333	0.727958
0.966667	0.727958
1	0.727958
0	0.774231
0.0333333	0.774231
0.0666667	0.774231
0.1	0.774231
0.133333	0.774231
0.166667	0.774231
0.2	0.774231
0.233333	0.774231
0.266667	0.774231
0.3	0.774231
0.333333	0.774231
0.366667	0.774231
0.4	0.774231
0.433333	0.774231
0.466667	0.774231
0.5	0.774231
0.533333	0.774231
0.566667	0.774231
0.6	0.774231
0.633333	0.774231
0.666667	0.774231
0.7	0.774231
0.733333	0.774231
0.766667	0.774231
0.8	0.774231
0.833333	0.774231
0.866667	0.774231
0.9	0.774231
0.933333	0.774231
0.966667	0.774231
1	0.774231
0	0.814907
0.0333333	0.814907
0.0666667	0.814907
0.1	0.814907
0.133333	0.814907
0.166667	0.814907
0.2	0.814907
0.233333	0.814907
0.266667	0.814907
0.3	0.814907
0.333333	0.814907
0.366667	0.814907
0.4	0.814907
0.433333	0.814907
0.466667	0.814907
0.5	0.814907
0.533333	0.814907
0.566667	0.814907
0.6	0.814907
0.633333	0.814907
0.666667	0.814907
0.7	0.814907
0.733333	0.814907
0.766667	0.814907
0.8	0.814907
0.833333	0.814907
0.866667	0.814907
0.9	0.814907
0.933333	0.814907
0.966667	0.814907
1	0.814907
0	0.850345
0.0333333	0.850345
0.0666667	0.850345
0.1	0.850345
0.133333	0.850345
0.166667	0.850345
0.2	0.850345
0.233333	0.850345
0.266667	0.850345
0.3	0.850345
0.333333	0.850345
0.366667	0.850345
0.4	0.850345
0.433333	0.850345
0.466667	0.850345
0.5	0.850345
0.533333	0.850345
0.566667	0.850345
0.6	0.850345
0.633333	0.850345
0.666667	0.850345
0.7	0.850345
0.733333	0.850345
0.766667	0.850345
0.8	0.850345
0.833333	0.850345
0.866667	0.850345
0.9	0.850345
0.933333	0.850345
0.966667	0.850345
1	0.850345
0	0.880908
0.0333333	0.880908
0.0666667	0.880908
0.1	0.880908
0.133333	0.880908
0.166667	0.880908
0.2	0.880908
0.233333	0.880908
0.266667	0.880908
0.3	0.880908
0.333333	0.880908
0.366667	0.880908
0.4	0.880908
0.433333	0.880908
0.466667	0.880908
0.5	0.880908
0.533333	0.880908
0.566667	0.880908
0.6	0.880908
0.633333	0.880908
0.666667	0.880908
0.7	0.880908
0.733333	0.880908
0.766667	0.880908
0.8	0.880908
0.833333	0.880908
0.866667	0.880908
0.9	0.880908
0.933333	0.880908
0.966667	0.880908
1	0.880908
0	0.906957
0.0333333	0.906957
0.0666667	0.906957
0.1	0.906957
0.133333	0.906957
0.166667	0.906957
0.2	0.906957
0.233333	0.906957
0.266667	0.906957
0.3	0.906957
0.333333	0.906957
0.366667	0.906957
0.4	0.906957
0.433333	0.906957
0.466667	0.906957
0.5	0.906957
0.533333	0.906957
0.566667	0.906957
0.6	0.906957
0.633333	0.906957
0.666667	0.906957
0.7	0.906957
0.733333	0.906957
0.766667	0.906957
0.8	0.906957
0.833333	0.906957
0.866667	0.906957
0.9	0.906957
0.933333	0.906957
0.966667	0.906957
1	0.906957
0	0.928852
0.0333333	0.928852
0.0666667	0.928852
0.1	0.928852
0.133333	0.928852
0.166667	0.928852
0.2	0.928852
0.233333	0.928852
0.266667	0.928852
0.3	0.928852
0.333333	0.928852
0.366667	0.928852
0.4	0.928852
0.433333	0.928852
0.466667	0.928852
0.5	0.928852
0.533333	0.928852
0.566667	0.928852
0.6	0.928852
0.633333	0.928852
0.666667	0.928852
0.7	0.928852
0.733333	0.928852
0.766667	0.928852
0.8	0.928852
0.833333	0.928852
0.866667	0.928852
0.9	0.928852
0.933333	0.928852
0.966667	0.928852
1	0.928852
0	0.946955
0.0333333	0.946955
0.0666667	0.946955
0.1	0.946955
0.133333	0.946955
0.166667	0.946955
0.2	0.946955
0.233333	0.946955
0.266667	0.946955
0.3	0.946955
0.333333	0.946955
0.366667	0.946955
0.4	0.946955
0.433333	0.946955
0.466667	0.946955
0.5	0.946955
0.533333	0.946955
0.566667	0.946955
0.6	0.946955
0.633333	0.946955
0.666667	0.946955
0.7	0.946955
0.733333	0.946955
0.766667	0.946955
0.8	0.946955
0.833333	0.946955
0.866667	0.946955
0.9	0.946955
0.933333	0.946955
0.966667	0.946955
1	0.946955
0	0.961627
0.0333333	0.961627
0.0666667	0.961627
0.1	0.961627
0.133333	0.961627
0.166667	0.961627
0.2	0.961627
0.233333	0.961627
0.266667	0.961627
0.3	0.961627
0.333333	0.961627
0.366667	0.961627
0.4	0.961627
0.433333	0.961627
0.466667	0.961627
0.5	0.961627
0.533333	0.961627
0.566667	0.961627
0.6	0.961627
0.633333	0.961627
0.666667	0.961627
0.7	0.961627
0.733333	0.961627
0.766667	0.961627
0.8	0.961627
0.833333	0.961627
0.866667	0.961627
0.9	0.961627
0.933333	0.961627
0.966667	0.961627
1	0.961627
0	0.973229
0.0333333	0.973229
0.0666667	0.973229
0.1	0.973229
0.133333	0.973229
0.166667	0.973229
0.2	0.973229
0.233333	0.973229
0.266667	0.973229
0.3	0.973229
0.333333	0.973229
0.366667	0.973229
0.4	0.973229
0.433333	0.973229
0.466667	0.973229
0.5	0.973229
0.533333	0.973229
0.566667	0.973229
0.6	0.973229
0.633333	0.973229
0.666667	0.973229
0.7	0.973229
0.733333	0.973229
0.766667	0.973229
0.8	0.973229
0.833333	0.973229
0.866667	0.973229
0.9	0.973229
0.933333	0.973229
0.966667	0.973229
1	0.973229
0	0.982123
0.0333333	0.982123
0.0666667	0.982123
0.1	0.982123
0.133333	0.982123
0.166667	0.982123
0.2	0.982123
0.233333	0.982123
0.266667	0.982123
0.3	0.982123
0.333333	0.982123
0.366667	0.982123
0.4	0.982123
0.433333	0.982123
0.466667	0.982123
0.5	0.982123
0.533333	0.982123
0.566667	0.982123
0.6	0.982123
0.633333	0.982123
0.666667	0.982123
0.7	0.982123
0.733333	0.982123
0.766667	0.982123
0.8	0.982123
0.833333	0.982123
0.866667	0.982123
0.9	0.982123
0.933333	0.982123
0.966667	0.982123
1	0.982123
0	0.988669
0.0333333	0.988669
0.0666667	0.988669
0.1	0.988669
0.133333	0.988669
0.166667	0.988669
0.2	0.988669
0.233333	0.988669
0.266667	0.988669
0.3	0.988669
0.333333	0.988669
0.366667	0.988669
0.4	0.988669
0.433333	0.988669
0.466667	0.988669
0.5	0.988669
0.533333	0.988669
0.566667	0.988669
0.6	0.988669
0.633333	0.988669
0.666667	0.988669
0.7	0.988669
0.733333	0.988669
0.766667	0.988669
0.8	0.988669
0.833333	0.988669
0.866667	0.988669
0.9	0.988669
0.933333	0.988669
0.966667	0.988669
1	0.988669
0	0.993228
0.0333333	0.993228
0.0666667	0.993228
0.1	0.993228
0.133333	0.993228
0.166667	0.993228
0.2	0.993228
0.233333	0.993228
0.266667	0.993228
0.3	0.993228
0.333333	0.993228
0.366667	0.993228
0.4	0.993228
0.433333	0.993228
0.466667	0.993228
0.5	0.993228
0.533333	0.993228
0.566667	0.993228
0.6	0.993228
0.633333	0.993228
0.666667	0.993228
0.7	0.993228
0.733333	0.993228
0.766667	0.993228
0.8	0.993228
0.833333	0.993228
0.866667	0.993228
0.9	0.993228
0.933333	0.993228
0.966667	0.993228
1	0.993228
0	0.996163
0.0333333	0.996163
0.0666667	0.996163
0.1	0.996163
0.133333	0.996163
0.166667	0.996163
0.2	0.996163
0.233333	0.996163
0.266667	0.996163
0.3	0.996163
0.333333	0.996163
0.366667	0.996163
0.4	0.996163
0.433333	0.996163
0.466667	0.996163
0.5	0.996163
0.533333	0.996163
0.566667	0.996163
0.6	0.996163
0.633333	0.996163
0.666667	0.996163
0.7	0.996163
0.733333	0.996163
0.766667	0.996163
0.8	0.996163
0.833333	0.996163
0.866667	0.996163
0.9	0.996163
0.933333	0.996163
0.966667	0.996163
1	0.996163
0	0.997833
0.0333333	0.997833
0.0666667	0.997833
0.1	0.997833
0.133333	0.997833
0.166667	0.997833
0.2	0.997833
0.233333	0.997833
0.266667	0.997833
0.3	0.997833
0.333333	0.997833
0.366667	0.997833
0.4	0.997833
0.433333	0.997833
0.466667	0.997833
0.5	0.997833
0.533333	0.997833
0.566667	0.997833
0.6	0.997833
0.633333	0.997833
0.666667	0.997833
0.7	0.997833
0.733333	0.997833
0.766667	0.997833
0.8	0.997833
0.833333	0.997833
0.866667	0.997833
0.9	0.997833
0.933333	0.997833
0.966667	0.997833
1	0.997833
0	0.998601
0.0333333	0.998601
0.0666667	0.998601
0.1	0.998601
0.133333	0.998601
0.166667	0.998601
0.2	0.998601
0.233333	0.998601
0.266667	0.998601
0.3	0.998601
0.333333	0.998601
0.366667	0.998601
0.4	0.998601
0.433333	0.998601
0.466667	0.998601
0.5	0.998601
0.533333	0.998601
0.566667	0.998601
0.6	0.998601
0.633333	0.998601
0.666667	0.998601
0.7	0.998601
0.733333	0.998601
0.766667	0.998601
0.8	0.998601
0.833333	0.998601
0.866667	0.998601
0.9	0.998601
0.933333	0.998601
0.966667	0.998601
1	0.998601
0	0.998826
0.0333333	0.998826
0.0666667	0.998826
0.1	0.998826
0.133333	0.998826
0.166667	0.998826
0.2	0.998826
0.233333	0.998826
0.266667	0.998826
0.3	0.998826
0.333333	0.998826
0.366667	0.998826
0.4	0.998826
0.433333	0.998826
0.466667	0.998826
0.5	0.998826
0.533333	0.998826
0.566667	0.998826
0.6	0.998826
0.633333	0.998826
0.666667	0.998826
0.7	0.998826
0.733333	0.998826
0.766667	0.998826
0.8	0.998826
0.833333	0.998826
0.866667	0.998826
0.9	0.998826
0.933333	0.998826
0.966667	0.998826
1	0.998826
0	0.998871
0.0333333	0.998871
0.0666667	0.998871
0.1	0.998871
0.133333	0.998871
0.166667	0.998871
0.2	0.998871
0.233333	0.998871
0.266667	0.998871
0.3	0.998871
0.333333	0.998871
0.366667	0.998871
0.4	0.998871
0.433333	0.998871
0.466667	0.998871
0.5	0.998871
0.533333	0.998871
0.566667	0.998871
0.6	0.998871
0.633333	0.998871
0.666667	0.998871
0.7	0.998871
0.733333	0.998871
0.766667	0.998871
0.8	0.998871
0.833333	0.998871
0.866667	0.998871
0.9	0.998871
0.933333	0.998871
0.966667	0.998871
1	0.998871
0	0.999097
0.0333333	0.999097
0.0666667	0.999097
0.1	0.999097
0.133333	0.999097
0.166667	0.999097
0.2	0.999097
0.233333	0.999097
0.266667	0.999097
0.3	0.999097
0.333333	0.999097
0.366667	0.999097
0.4	0.999097
0.433333	0.999097
0.466667	0.999097
0.5	0.999097
0.533333	0.999097
0.566667	0.999097
0.6	0.999097
0.633333	0.999097
0.666667	0.999097
0.7	0.999097
0.733333	0.999097
0.766667	0.999097
0.8	0.999097
0.833333	0.999097
0.866667	0.999097
0.9	0.999097
0.933333	0.999097
0.966667	0.999097
1	0.999097
0	0.999865
0.0333333	0.999865
0.0666667	0.999865
0.1	0.999865
0.133333	0.999865
0.166667	0.999865
0.2	0.999865
0.233333	0.999865
0.266667	0.999865
0.3	0.999865
0.333333	0.999865
0.366667	0.999865
0.4	0.999865
0.433333	0.999865
0.466667	0.999865
0.5	0.999865
0.533333	0.999865
0.566667	0.999865
0.6	0.999865
0.633333	0.999865
0.666667	0.999865
0.7	0.999865
0.733333	0.999865
0.766667	0.999865
0.8	0.999865
0.833333	0.999865
0.866667	0.999865
0.9	0.999865
0.933333	0.999865
0.966667	0.999865
1	0.999865
0	1.00153
0.0333333	1.00153
0.0666667	1.00153
0.1	1.00153
0.133333	1.00153
0.166667	1.00153
0.2	1.00153
0.233333	1.00153
0.266667	1.00153
0.3	1.00153
0.333333	1.00153
0.366667	1.00153
0.4	1.00153
0.433333	1.00153
0.466667	1.00153
0.5	1.00153
0.533333	1.00153
0.566667	1.00153
0.6	1.00153
0.633333	1.00153
0.666667	1.00153
0.7	1.00153
0.733333	1.00153
0.766667	1.00153
0.8	1.00153
0.833333	1.00153
0.866667	1.00153
0.9	1.00153
0.933333	1.00153
0.966667	1.00153
1	1.00153
0	1.00447
0.0333333	1.00447
0.0666667	1.00447
0.1	1.00447
0.133333	1.00447
0.166667	1.00447
0.2	1.00447
0.233333	1.00447
0.266667	1.00447
0.3	1.00447
0.333333	1.00447
0.366667	1.00447
0.4	1.00447
0.433333	1.00447
0.466667	1.00447
0.5	1.00447
0.533333	1.00447
0.566667	1.00447
0.6	1.00447
0.633333	1.00447
0.666667	1.00447
0.7	1.00447
0.733333	1.00447
0.766667	1.00447
0.8	1.00447
0.833333	1.00447
0.866667	1.00447
0.9	1.00447
0.933333	1.00447
0.966667	1.00447
1	1.00447
0	1.00903
0.0333333	1.00903
0.0666667	1.00903
0.1	1.00903
0.133333	1.00903
0.166667	1.00903
0.2	1.00903
0.233333	1.00903
0.266667	1.00903
0.3	1.00903
0.333333	1.00903
0.366667	1.00903
0.4	1.00903
0.433333	1.00903
0.466667	1.00903
0.5	1.00903
0.533333	1.00903
0.566667	1.00903
0.6	1.00903
0.633333	1.00903
0.666667	1.00903
0.7	1.00903
0.733333	1.00903
0.766667	1.00903
0.8	1.00903
0.833333	1.00903
0.866667	1.00903
0.9	1.00903
0.933333	1.00903
0.966667	1.00903
1	1.00903
0	1.01557
0.0333333	1.01557
0.0666667	1.01557
0.1	1.01557
0.133333	1.01557
0.166667	1.01557
0.2	1.01557
0.233333	1.01557
0.266667	1.01557
0.3	1.01557
0.333333	1.01557
0.366667	1.01557
0.4	1.01557
0.433333	1.01557
0.466667	1.01557
0.5	1.01557
0.533333	1.01557
0.566667	1.01557
0.6	1.01557
0.633333	1.01557
0.666667	1.01557
0.7	1.01557
0.733333	1.01557
0.766667	1.01557
0.8	1.01557
0.833333	1.01557
0.866667	1.01557
0.9	1.01557
0.933333	1.01557
0.966667	1.01557
1	1.01557
0	1.02447
0.0333333	1.02447
0.0666667	1.02447
0.1	1.02447
0.133333	1.02447
0.166667	1.02447
0.2	1.02447
0.233333	1.02447
0.266667	1.02447
0.3	1.02447
0.333333	1.02447
0.366667	1.02447
0.4	1.02447
0.433333	1.02447
0.466667	1.02447
0.5	1.02447
0.533333	1.02447
0.566667	1.02447
0.6	1.02447
0.633333	1.02447
0.666667	1.02447
0.7	1.02447
0.733333	1.02447
0.766667	1.02447
0.8	1.02447
0.833333	1.02447
0.866667	1.02447
0.9	1.02447
0.933333	1.02447
0.966667	1.02447
1	1.02447
0	1.03607
0.0333333	1.03607
0.0666667	1.03607
0.1	1.03607
0.133333	1.03607
0.166667	1.03607
0.2	1.03607
0.233333	1.03607
0.266667	1.03607
0.3	1.03607
0.333333	1.03607
0.366667	1.03607
0.4	1.03607
0.433333	1.03607
0.466667	1.03607
0.5	1.03607
0.533333	1.03607
0.566667	1.03607
0.6	1.03607
0.633333	1.03607
0.666667	1.03607
0.7	1.03607
0.733333	1.03607
0.766667	1.03607
0.8	1.03607
0.833333	1.03607
0.866667	1.03607
0.9	1.03607
0.933333	1.03607
0.966667	1.03607
1	1.03607
0	1.05074
0.0333333	1.05074
0.0666667	1.05074
0.1	1.05074
0.133333	1.05074
0.166667	1.05074
0.2	1.05074
0.233333	1.05074
0.266667	1.05074
0.3	1.05074
0.333333	1.05074
0.366667	1.05074
0.4	1.05074
0.433333	1.05074
0.466667	1.05074
0.5	1.05074
0.533333	1.05074
0.566667	1.05074
0.6	1.05074
0.633333	1.05074
0.666667	1.05074
0.7	1.05074
0.733333	1.05074
0.766667	1.05074
0.8	1.05074
0.833333	1.05074
0.866667	1.05074
0.9	1.05074
0.933333	1.05074
0.966667	1.05074
1	1.05074
0	1.06885
0.0333333	1.06885
0.0666667	1.06885
0.1	1.06885
0.133333	1.06885
0.166667	1.06885
0.2	1.06885
0.233333	1.06885
0.266667	1.06885
0.3	1.06885
0.333333	1.06885
0.366667	1.06885
0.4	1.06885
0.433333	1.06885
0.466667	1.06885
0.5	1.06885
0.533333	1.06885
0.566667	1.06885
0.6	1.06885
0.633333	1.06885
0.666667	1.06885
0.7	1.06885
0.733333	1.06885
0.766667	1.06885
0.8	1.06885
0.833333	1.06885
0.866667	1.06885
0.9	1.06885
0.933333	1.06885
0.966667	1.06885
1	1.06885
0	1.09074
0.0333333	1.09074
0.0666667	1.09074
0.1	1.09074
0.133333	1.09074
0.166667	1.09074
0.2	1.09074
0.233333	1.09074
0.266667	1.09074
0.3	1.09074
0.333333	1.09074
0.366667	1.09074
0.4	1.09074
0.433333	1.09074
0.466667	1.09074
0.5	1.09074
0.533333	1.09074
0.566667	1.09074
0.6	1.09074
0.633333	1.09074
0.666667	1.09074
0.7	1.09074
0.733333	1.09074
0.766667	1.09074
0.8	1.09074
0.833333	1.09074
0.866667	1.09074
0.9	1.09074
0.933333	1.09074
0.966667	1.09074
1	1.09074
0	1.11679
0.0333333	1.11679
0.0666667	1.11679
0.1	1.11679
0.133333	1.11679
0.166667	1.11679
0.2	1.11679
0.233333	1.11679
0.266667	1.11679
0.3	1.11679
0.333333	1.11679
0.366667	1.11679
0.4	1.11679
0.433333	1.11679
0.466667	1.11679
0.5	1.11679
0.533333	1.11679
0.566667	1.11679
0.6	1.11679
0.633333	1.11679
0.666667	1.11679
0.7	1.11679
0.733333	1.11679
0.766667	1.11679
0.8	1.11679
0.833333	1.11679
0.866667	1.11679
0.9	1.11679
0.933333	1.11679
0.966667	1.11679
1	1.11679
0	1.14735
0.0333333	1.14735
0.0666667	1.14735
0.1	1.14735
0.133333	1.14735
0.166667	1.14735
0.2	1.14735
0.233333	1.14735
0.266667	1.14735
0.3	1.14735
0.333333	1.14735
0.366667	1.14735
0.4	1.14735
0.433333	1.14735
0.466667	1.14735
0.5	1.14735
0.533333	1.14735
0.566667	1.14735
0.6	1.14735
0.633333	1.14735
0.666667	1.14735
0.7	1.14735
0.733333	1.14735
0.766667	1.14735
0.8	1.14735
0.833333	1.14735
0.866667	1.14735
0.9	1.14735
0.933333	1.14735
0.966667	1.14735
1	1.14735
0	1.18279
0.0333333	1.18279
0.0666667	1.18279
0.1	1.18279
0.133333	1.18279
0.166667	1.18279
0.2	1.18279
0.233333	1.18279
0.266667	1.18279
0.3	1.18279
0.333333	1.18279
0.366667	1.18279
0.4	1.18279
0.433333	1.18279
0.466667	1.18279
0.5	1.18279
0.533333	1.18279
0.566667	1.18279
0.6	1.18279
0.633333	1.18279
0.666667	1.18279
0.7	1.18279
0.733333	1.18279
0.766667	1.18279
0.8	1.18279
0.833333	1.18279
0.866667	1.18279
0.9	1.18279
0.933333	1.18279
0.966667	1.18279
1	1.18279
0	1.22347
0.0333333	1.22347
0.0666667	1.22347
0.1	1.22347
0.133333	1.22347
0.166667	1.22347
0.2	1.22347
0.233333	1.22347
0.266667	1.22347
0.3	1.22347
0.333333	1.22347
0.366667	1.22347
0.4	1.22347
0.433333	1.22347
0.466667	1.22347
0.5	1.22347
0.533333	1.22347
0.566667	1.22347
0.6	1.22347
0.633333	1.22347
0.666667	1.22347
0.7	1.22347
0.733333	1.22347
0.766667	1.22347
0.8	1.22347
0.833333	1.22347
0.866667	1.22347
0.9	1.22347
0.933333	1.22347
0.966667	1.22347
1	1.22347
0	1.26974
0.0333333	1.26974
0.0666667	1.26974
0.1	1.26974
0.133333	1.26974
0.166667	1.26974
0.2	1.26974
0.233333	1.26974
0.266667	1.26974
0.3	1.26974
0.333333	1.26974
0.366667	1.26974
0.4	1.26974
0.433333	1.26974
0.466667	1.26974
0.5	1.26974
0.533333	1.26974
0.566667	1.26974
0.6	1.26974
0.633333	1.26974
0.666667	1.26974
0.7	1.26974
0.733333	1.26974
0.766667	1.26974
0.8	1.26974
0.833333	1.26974
0.866667	1.26974
0.9	1.26974
0.933333	1.26974
0.966667	1.26974
1	1.26974
0	1.32197
0.0333333	1.32197
0.0666667	1.32197
0.1	1.32197
0.133333	1.32197
0.166667	1.32197
0.2	1.32197
0.233333	1.32197
0.266667	1.32197
0.3	1.32197
0.333333	1.32197
0.366667	1.32197
0.4	1.32197
0.433333	1.32197
0.466667	1.32197
0.5	1.32197
0.533333	1.32197
0.566667	1.32197
0.6	1.32197
0.633333	1.32197
0.666667	1.32197
0.7	1.32197
0.733333	1.32197
0.766667	1.32197
0.8	1.32197
0.833333	1.32197
0.866667	1.32197
0.9	1.32197
0.933333	1.32197
0.966667	1.32197
1	1.32197
0	1.38052
0.0333333	1.38052
0.0666667	1.38052
0.1	1.38052
0.133333	1.38052
0.166667	1.38052
0.2	1.38052
0.233333	1.38052
0.266667	1.38052
0.3	1.38052
0.333333	1.38052
0.366667	1.38052
0.4	1.38052
0.433333	1.38052
0.466667	1.38052
0.5	1.38052
0.533333	1.38052
0.566667	1.38052
0.6	1.38052
0.633333	1.38052
0.666667	1.38052
0.7	1.38052
0.733333	1.38052
0.766667	1.38052
0.8	1.38052
0.833333	1.38052
0.866667	1.38052
0.9	1.38052
0.933333	1.38052
0.966667	1.38052
1	1.38052
0	1.44576
0.0333333	1.44576
0.0666667	1.44576
0.1	1.44576
0.133333	1.44576
0.166667	1.44576
0.2	1.44576
0.233333	1.44576
0.266667	1.44576
0.3	1.44576
0.333333	1.44576
0.366667	1.44576
0.4	1.44576
0.433333	1.44576
0.466667	1.44576
0.5	1.44576
0.533333	1.44576
0.566667	1.44576
0.6	1.44576
0.633333	1.44576
0.666667	1.44576
0.7	1.44576
0.733333	1.44576
0.766667	1.44576
0.8	1.44576
0.833333	1.44576
0.866667	1.44576
0.9	1.44576
0.933333	1.44576
0.966667	1.44576
1	1.44576
0	1.51804
0.0333333	1.51804
0.0666667	1.51804
0.1	1.51804
0.133333	1.51804
0.166667	1.51804
0.2	1.51804
0.233333	1.51804
0.266667	1.51804
0.3	1.51804
0.333333	1.51804
0.366667	1.51804
0.4	1.51804
0.433333	1.51804
0.466667	1.51804
0.5	1.51804
0.533333	1.51804
0.566667	1.51804
0.6	1.51804
0.633333	1.51804
0.666667	1.51804
0.7	1.51804
0.733333	1.51804
0.766667	1.51804
0.8	1.51804
0.833333	1.51804
0.866667	1.51804
0.9	1.51804
0.933333	1.51804
0.966667	1.51804
1	1.51804
0	1.59772
0.0333333	1.59772
0.0666667	1.59772
0.1	1.59772
0.133333	1.59772
0.166667	1.59772
0.2	1.59772
0.233333	1.59772
0.266667	1.59772
0.3	1.59772
0.333333	1.59772
0.366667	1.59772
0.4	1.59772
0.433333	1.59772
0.466667	1.59772
0.5	1.59772
0.533333	1.59772
0.566667	1.59772
0.6	1.59772
0.633333	1.59772
0.666667	1.59772
0.7	1.59772
0.733333	1.59772
0.766667	1.59772
0.8	1.59772
0.833333	1.59772
0.866667	1.59772
0.9	1.59772
0.933333	1.59772
0.966667	1.59772
1	1.59772
0	1.68516
0.0333333	1.68516
0.0666667	1.68516
0.1	1.68516
0.133333	1.68516
0.166667	1.68516
0.2	1.68516
0.233333	1.68516
0.266667	1.68516
0.3	1.68516
0.333333	1.68516
0.366667	1.68516
0.4	1.68516
0.433333	1.68516
0.466667	1.68516
0.5	1.68516
0.533333	1.68516
0.566667	1.68516
0.6	1.68516
0.633333	1.68516
0.666667	1.68516
0.7	1.68516
0.733333	1.68516
0.766667	1.68516
0.8	1.68516
0.833333	1.68516
0.866667	1.68516
0.9	1.68516
0.933333	1.68516
0.966667	1.68516
1	1.68516
0	1.78073
0.0333333	1.78073
0.0666667	1.78073
0.1	1.78073
0.133333	1.78073
0.166667	1.78073
0.2	1.78073
0.233333	1.78073
0.266667	1.78073
0.3	1.78073
0.333333	1.78073
0.366667	1.78073
0.4	1.78073
0.433333	1.78073
0.466667	1.78073
0.5	1.78073
0.533333	1.78073
0.566667	1.78073
0.6	1.78073
0.633333	1.78073
0.666667	1.78073
0.7	1.78073
0.733333	1.78073
0.766667	1.78073
0.8	1.78073
0.833333	1.78073
0.866667	1.78073
0.9	1.78073
0.933333	1.78073
0.966667	1.78073
1	1.78073
0	1.88479
0.0333333	1.88479
0.0666667	1.88479
0.1	1.88479
0.133333	1.88479
0.166667	1.88479
0.2	1.88479
0.233333	1.88479
0.266667	1.88479
0.3	1.88479
0.333333	1.88479
0.366667	1.88479
0.4	1.88479
0.433333	1.88479
0.466667	1.88479
0.5	1.88479
0.533333	1.88479
0.566667	1.88479
0.6	1.88479
0.633333	1.88479
0.666667	1.88479
0.7	1.88479
0.733333	1.88479
0.766667	1.88479
0.8	1.88479
0.833333	1.88479
0.866667	1.88479
0.9	1.88479
0.933333	1.88479
0.966667	1.88479
1	1.88479
