VARIABLES = X Y
ZONE I = 31, J = 51, F = POINT
0	0
0.0333333	0
0.0666667	0
0.1	0
0.133333	0
0.166667	0
0.2	0
0.233333	0
0.266667	0
0.3	0
0.333333	0
0.366667	0
0.4	0
0.433333	0
0.466667	0
0.5	0
0.533333	0
0.566667	0
0.6	0
0.633333	0
0.666667	0
0.7	0
0.733333	0
0.766667	0
0.8	0
0.833333	0
0.866667	0
0.9	0
0.933333	0
0.966667	0
1	0
0	0.04
0.0333333	0.04
0.0666667	0.04
0.1	0.04
0.133333	0.04
0.166667	0.04
0.2	0.04
0.233333	0.04
0.266667	0.04
0.3	0.04
0.333333	0.04
0.366667	0.04
0.4	0.04
0.433333	0.04
0.466667	0.04
0.5	0.04
0.533333	0.04
0.566667	0.04
0.6	0.04
0.633333	0.04
0.666667	0.04
0.7	0.04
0.733333	0.04
0.766667	0.04
0.8	0.04
0.833333	0.04
0.866667	0.04
0.9	0.04
0.933333	0.04
0.966667	0.04
1	0.04
0	0.08
0.0333333	0.08
0.0666667	0.08
0.1	0.08
0.133333	0.08
0.166667	0.08
0.2	0.08
0.233333	0.08
0.266667	0.08
0.3	0.08
0.333333	0.08
0.366667	0.08
0.4	0.08
0.433333	0.08
0.466667	0.08
0.5	0.08
0.533333	0.08
0.566667	0.08
0.6	0.08
0.633333	0.08
0.666667	0.08
0.7	0.08
0.733333	0.08
0.766667	0.08
0.8	0.08
0.833333	0.08
0.866667	0.08
0.9	0.08
0.933333	0.08
0.966667	0.08
1	0.08
0	0.12
0.0333333	0.12
0.0666667	0.12
0.1	0.12
0.133333	0.12
0.166667	0.12
0.2	0.12
0.233333	0.12
0.266667	0.12
0.3	0.12
0.333333	0.12
0.366667	0.12
0.4	0.12
0.433333	0.12
0.466667	0.12
0.5	0.12
0.533333	0.12
0.566667	0.12
0.6	0.12
0.633333	0.12
0.666667	0.12
0.7	0.12
0.733333	0.12
0.766667	0.12
0.8	0.12
0.833333	0.12
0.866667	0.12
0.9	0.12
0.933333	0.12
0.966667	0.12
1	0.12
0	0.16
0.0333333	0.16
0.0666667	0.16
0.1	0.16
0.133333	0.16
0.166667	0.16
0.2	0.16
0.233333	0.16
0.266667	0.16
0.3	0.16
0.333333	0.16
0.366667	0.16
0.4	0.16
0.433333	0.16
0.466667	0.16
0.5	0.16
0.533333	0.16
0.566667	0.16
0.6	0.16
0.633333	0.16
0.666667	0.16
0.7	0.16
0.733333	0.16
0.766667	0.16
0.8	0.16
0.833333	0.16
0.866667	0.16
0.9	0.16
0.933333	0.16
0.966667	0.16
1	0.16
0	0.2
0.0333333	0.2
0.0666667	0.2
0.1	0.2
0.133333	0.2
0.166667	0.2
0.2	0.2
0.233333	0.2
0.266667	0.2
0.3	0.2
0.333333	0.2
0.366667	0.2
0.4	0.2
0.433333	0.2
0.466667	0.2
0.5	0.2
0.533333	0.2
0.566667	0.2
0.6	0.2
0.633333	0.2
0.666667	0.2
0.7	0.2
0.733333	0.2
0.766667	0.2
0.8	0.2
0.833333	0.2
0.866667	0.2
0.9	0.2
0.933333	0.2
0.966667	0.2
1	0.2
0	0.24
0.0333333	0.24
0.0666667	0.24
0.1	0.24
0.133333	0.24
0.166667	0.24
0.2	0.24
0.233333	0.24
0.266667	0.24
0.3	0.24
0.333333	0.24
0.366667	0.24
0.4	0.24
0.433333	0.24
0.466667	0.24
0.5	0.24
0.533333	0.24
0.566667	0.24
0.6	0.24
0.633333	0.24
0.666667	0.24
0.7	0.24
0.733333	0.24
0.766667	0.24
0.8	0.24
0.833333	0.24
0.866667	0.24
0.9	0.24
0.933333	0.24
0.966667	0.24
1	0.24
0	0.28
0.0333333	0.28
0.0666667	0.28
0.1	0.28
0.133333	0.28
0.166667	0.28
0.2	0.28
0.233333	0.28
0.266667	0.28
0.3	0.28
0.333333	0.28
0.366667	0.28
0.4	0.28
0.433333	0.28
0.466667	0.28
0.5	0.28
0.533333	0.28
0.566667	0.28
0.6	0.28
0.633333	0.28
0.666667	0.28
0.7	0.28
0.733333	0.28
0.766667	0.28
0.8	0.28
0.833333	0.28
0.866667	0.28
0.9	0.28
0.933333	0.28
0.966667	0.28
1	0.28
0	0.32
0.0333333	0.32
0.0666667	0.32
0.1	0.32
0.133333	0.32
0.166667	0.32
0.2	0.32
0.233333	0.32
0.266667	0.32
0.3	0.32
0.333333	0.32
0.366667	0.32
0.4	0.32
0.433333	0.32
0.466667	0.32
0.5	0.32
0.533333	0.32
0.566667	0.32
0.6	0.32
0.633333	0.32
0.666667	0.32
0.7	0.32
0.733333	0.32
0.766667	0.32
0.8	0.32
0.833333	0.32
0.866667	0.32
0.9	0.32
0.933333	0.32
0.966667	0.32
1	0.32
0	0.36
0.0333333	0.36
0.0666667	0.36
0.1	0.36
0.133333	0.36
0.166667	0.36
0.2	0.36
0.233333	0.36
0.266667	0.36
0.3	0.36
0.333333	0.36
0.366667	0.36
0.4	0.36
0.433333	0.36
0.466667	0.36
0.5	0.36
0.533333	0.36
0.566667	0.36
0.6	0.36
0.633333	0.36
0.666667	0.36
0.7	0.36
0.733333	0.36
0.766667	0.36
0.8	0.36
0.833333	0.36
0.866667	0.36
0.9	0.36
0.933333	0.36
0.966667	0.36
1	0.36
0	0.4
0.0333333	0.4
0.0666667	0.4
0.1	0.4
0.133333	0.4
0.166667	0.4
0.2	0.4
0.233333	0.4
0.266667	0.4
0.3	0.4
0.333333	0.4
0.366667	0.4
0.4	0.4
0.433333	0.4
0.466667	0.4
0.5	0.4
0.533333	0.4
0.566667	0.4
0.6	0.4
0.633333	0.4
0.666667	0.4
0.7	0.4
0.733333	0.4
0.766667	0.4
0.8	0.4
0.833333	0.4
0.866667	0.4
0.9	0.4
0.933333	0.4
0.966667	0.4
1	0.4
0	0.44
0.0333333	0.44
0.0666667	0.44
0.1	0.44
0.133333	0.44
0.166667	0.44
0.2	0.44
0.233333	0.44
0.266667	0.44
0.3	0.44
0.333333	0.44
0.366667	0.44
0.4	0.44
0.433333	0.44
0.466667	0.44
0.5	0.44
0.533333	0.44
0.566667	0.44
0.6	0.44
0.633333	0.44
0.666667	0.44
0.7	0.44
0.733333	0.44
0.766667	0.44
0.8	0.44
0.833333	0.44
0.866667	0.44
0.9	0.44
0.933333	0.44
0.966667	0.44
1	0.44
0	0.48
0.0333333	0.48
0.0666667	0.48
0.1	0.48
0.133333	0.48
0.166667	0.48
0.2	0.48
0.233333	0.48
0.266667	0.48
0.3	0.48
0.333333	0.48
0.366667	0.48
0.4	0.48
0.433333	0.48
0.466667	0.48
0.5	0.48
0.533333	0.48
0.566667	0.48
0.6	0.48
0.633333	0.48
0.666667	0.48
0.7	0.48
0.733333	0.48
0.766667	0.48
0.8	0.48
0.833333	0.48
0.866667	0.48
0.9	0.48
0.933333	0.48
0.966667	0.48
1	0.48
0	0.52
0.0333333	0.52
0.0666667	0.52
0.1	0.52
0.133333	0.52
0.166667	0.52
0.2	0.52
0.233333	0.52
0.266667	0.52
0.3	0.52
0.333333	0.52
0.366667	0.52
0.4	0.52
0.433333	0.52
0.466667	0.52
0.5	0.52
0.533333	0.52
0.566667	0.52
0.6	0.52
0.633333	0.52
0.666667	0.52
0.7	0.52
0.733333	0.52
0.766667	0.52
0.8	0.52
0.833333	0.52
0.866667	0.52
0.9	0.52
0.933333	0.52
0.966667	0.52
1	0.52
0	0.56
0.0333333	0.56
0.0666667	0.56
0.1	0.56
0.133333	0.56
0.166667	0.56
0.2	0.56
0.233333	0.56
0.266667	0.56
0.3	0.56
0.333333	0.56
0.366667	0.56
0.4	0.56
0.433333	0.56
0.466667	0.56
0.5	0.56
0.533333	0.56
0.566667	0.56
0.6	0.56
0.633333	0.56
0.666667	0.56
0.7	0.56
0.733333	0.56
0.766667	0.56
0.8	0.56
0.833333	0.56
0.866667	0.56
0.9	0.56
0.933333	0.56
0.966667	0.56
1	0.56
0	0.6
0.0333333	0.6
0.0666667	0.6
0.1	0.6
0.133333	0.6
0.166667	0.6
0.2	0.6
0.233333	0.6
0.266667	0.6
0.3	0.6
0.333333	0.6
0.366667	0.6
0.4	0.6
0.433333	0.6
0.466667	0.6
0.5	0.6
0.533333	0.6
0.566667	0.6
0.6	0.6
0.633333	0.6
0.666667	0.6
0.7	0.6
0.733333	0.6
0.766667	0.6
0.8	0.6
0.833333	0.6
0.866667	0.6
0.9	0.6
0.933333	0.6
0.966667	0.6
1	0.6
0	0.64
0.0333333	0.64
0.0666667	0.64
0.1	0.64
0.133333	0.64
0.166667	0.64
0.2	0.64
0.233333	0.64
0.266667	0.64
0.3	0.64
0.333333	0.64
0.366667	0.64
0.4	0.64
0.433333	0.64
0.466667	0.64
0.5	0.64
0.533333	0.64
0.566667	0.64
0.6	0.64
0.633333	0.64
0.666667	0.64
0.7	0.64
0.733333	0.64
0.766667	0.64
0.8	0.64
0.833333	0.64
0.866667	0.64
0.9	0.64
0.933333	0.64
0.966667	0.64
1	0.64
0	0.68
0.0333333	0.68
0.0666667	0.68
0.1	0.68
0.133333	0.68
0.166667	0.68
0.2	0.68
0.233333	0.68
0.266667	0.68
0.3	0.68
0.333333	0.68
0.366667	0.68
0.4	0.68
0.433333	0.68
0.466667	0.68
0.5	0.68
0.533333	0.68
0.566667	0.68
0.6	0.68
0.633333	0.68
0.666667	0.68
0.7	0.68
0.733333	0.68
0.766667	0.68
0.8	0.68
0.833333	0.68
0.866667	0.68
0.9	0.68
0.933333	0.68
0.966667	0.68
1	0.68
0	0.72
0.0333333	0.72
0.0666667	0.72
0.1	0.72
0.133333	0.72
0.166667	0.72
0.2	0.72
0.233333	0.72
0.266667	0.72
0.3	0.72
0.333333	0.72
0.366667	0.72
0.4	0.72
0.433333	0.72
0.466667	0.72
0.5	0.72
0.533333	0.72
0.566667	0.72
0.6	0.72
0.633333	0.72
0.666667	0.72
0.7	0.72
0.733333	0.72
0.766667	0.72
0.8	0.72
0.833333	0.72
0.866667	0.72
0.9	0.72
0.933333	0.72
0.966667	0.72
1	0.72
0	0.76
0.0333333	0.76
0.0666667	0.76
0.1	0.76
0.133333	0.76
0.166667	0.76
0.2	0.76
0.233333	0.76
0.266667	0.76
0.3	0.76
0.333333	0.76
0.366667	0.76
0.4	0.76
0.433333	0.76
0.466667	0.76
0.5	0.76
0.533333	0.76
0.566667	0.76
0.6	0.76
0.633333	0.76
0.666667	0.76
0.7	0.76
0.733333	0.76
0.766667	0.76
0.8	0.76
0.833333	0.76
0.866667	0.76
0.9	0.76
0.933333	0.76
0.966667	0.76
1	0.76
0	0.8
0.0333333	0.8
0.0666667	0.8
0.1	0.8
0.133333	0.8
0.166667	0.8
0.2	0.8
0.233333	0.8
0.266667	0.8
0.3	0.8
0.333333	0.8
0.366667	0.8
0.4	0.8
0.433333	0.8
0.466667	0.8
0.5	0.8
0.533333	0.8
0.566667	0.8
0.6	0.8
0.633333	0.8
0.666667	0.8
0.7	0.8
0.733333	0.8
0.766667	0.8
0.8	0.8
0.833333	0.8
0.866667	0.8
0.9	0.8
0.933333	0.8
0.966667	0.8
1	0.8
0	0.84
0.0333333	0.84
0.0666667	0.84
0.1	0.84
0.133333	0.84
0.166667	0.84
0.2	0.84
0.233333	0.84
0.266667	0.84
0.3	0.84
0.333333	0.84
0.366667	0.84
0.4	0.84
0.433333	0.84
0.466667	0.84
0.5	0.84
0.533333	0.84
0.566667	0.84
0.6	0.84
0.633333	0.84
0.666667	0.84
0.7	0.84
0.733333	0.84
0.766667	0.84
0.8	0.84
0.833333	0.84
0.866667	0.84
0.9	0.84
0.933333	0.84
0.966667	0.84
1	0.84
0	0.88
0.0333333	0.88
0.0666667	0.88
0.1	0.88
0.133333	0.88
0.166667	0.88
0.2	0.88
0.233333	0.88
0.266667	0.88
0.3	0.88
0.333333	0.88
0.366667	0.88
0.4	0.88
0.433333	0.88
0.466667	0.88
0.5	0.88
0.533333	0.88
0.566667	0.88
0.6	0.88
0.633333	0.88
0.666667	0.88
0.7	0.88
0.733333	0.88
0.766667	0.88
0.8	0.88
0.833333	0.88
0.866667	0.88
0.9	0.88
0.933333	0.88
0.966667	0.88
1	0.88
0	0.92
0.0333333	0.92
0.0666667	0.92
0.1	0.92
0.133333	0.92
0.166667	0.92
0.2	0.92
0.233333	0.92
0.266667	0.92
0.3	0.92
0.333333	0.92
0.366667	0.92
0.4	0.92
0.433333	0.92
0.466667	0.92
0.5	0.92
0.533333	0.92
0.566667	0.92
0.6	0.92
0.633333	0.92
0.666667	0.92
0.7	0.92
0.733333	0.92
0.766667	0.92
0.8	0.92
0.833333	0.92
0.866667	0.92
0.9	0.92
0.933333	0.92
0.966667	0.92
1	0.92
0	0.96
0.0333333	0.96
0.0666667	0.96
0.1	0.96
0.133333	0.96
0.166667	0.96
0.2	0.96
0.233333	0.96
0.266667	0.96
0.3	0.96
0.333333	0.96
0.366667	0.96
0.4	0.96
0.433333	0.96
0.466667	0.96
0.5	0.96
0.533333	0.96
0.566667	0.96
0.6	0.96
0.633333	0.96
0.666667	0.96
0.7	0.96
0.733333	0.96
0.766667	0.96
0.8	0.96
0.833333	0.96
0.866667	0.96
0.9	0.96
0.933333	0.96
0.966667	0.96
1	0.96
0	1
0.0333333	1
0.0666667	1
0.1	1
0.133333	1
0.166667	1
0.2	1
0.233333	1
0.266667	1
0.3	1
0.333333	1
0.366667	1
0.4	1
0.433333	1
0.466667	1
0.5	1
0.533333	1
0.566667	1
0.6	1
0.633333	1
0.666667	1
0.7	1
0.733333	1
0.766667	1
0.8	1
0.833333	1
0.866667	1
0.9	1
0.933333	1
0.966667	1
1	1
0	1.04
0.0333333	1.04
0.0666667	1.04
0.1	1.04
0.133333	1.04
0.166667	1.04
0.2	1.04
0.233333	1.04
0.266667	1.04
0.3	1.04
0.333333	1.04
0.366667	1.04
0.4	1.04
0.433333	1.04
0.466667	1.04
0.5	1.04
0.533333	1.04
0.566667	1.04
0.6	1.04
0.633333	1.04
0.666667	1.04
0.7	1.04
0.733333	1.04
0.766667	1.04
0.8	1.04
0.833333	1.04
0.866667	1.04
0.9	1.04
0.933333	1.04
0.966667	1.04
1	1.04
0	1.08
0.0333333	1.08
0.0666667	1.08
0.1	1.08
0.133333	1.08
0.166667	1.08
0.2	1.08
0.233333	1.08
0.266667	1.08
0.3	1.08
0.333333	1.08
0.366667	1.08
0.4	1.08
0.433333	1.08
0.466667	1.08
0.5	1.08
0.533333	1.08
0.566667	1.08
0.6	1.08
0.633333	1.08
0.666667	1.08
0.7	1.08
0.733333	1.08
0.766667	1.08
0.8	1.08
0.833333	1.08
0.866667	1.08
0.9	1.08
0.933333	1.08
0.966667	1.08
1	1.08
0	1.12
0.0333333	1.12
0.0666667	1.12
0.1	1.12
0.133333	1.12
0.166667	1.12
0.2	1.12
0.233333	1.12
0.266667	1.12
0.3	1.12
0.333333	1.12
0.366667	1.12
0.4	1.12
0.433333	1.12
0.466667	1.12
0.5	1.12
0.533333	1.12
0.566667	1.12
0.6	1.12
0.633333	1.12
0.666667	1.12
0.7	1.12
0.733333	1.12
0.766667	1.12
0.8	1.12
0.833333	1.12
0.866667	1.12
0.9	1.12
0.933333	1.12
0.966667	1.12
1	1.12
0	1.16
0.0333333	1.16
0.0666667	1.16
0.1	1.16
0.133333	1.16
0.166667	1.16
0.2	1.16
0.233333	1.16
0.266667	1.16
0.3	1.16
0.333333	1.16
0.366667	1.16
0.4	1.16
0.433333	1.16
0.466667	1.16
0.5	1.16
0.533333	1.16
0.566667	1.16
0.6	1.16
0.633333	1.16
0.666667	1.16
0.7	1.16
0.733333	1.16
0.766667	1.16
0.8	1.16
0.833333	1.16
0.866667	1.16
0.9	1.16
0.933333	1.16
0.966667	1.16
1	1.16
0	1.2
0.0333333	1.2
0.0666667	1.2
0.1	1.2
0.133333	1.2
0.166667	1.2
0.2	1.2
0.233333	1.2
0.266667	1.2
0.3	1.2
0.333333	1.2
0.366667	1.2
0.4	1.2
0.433333	1.2
0.466667	1.2
0.5	1.2
0.533333	1.2
0.566667	1.2
0.6	1.2
0.633333	1.2
0.666667	1.2
0.7	1.2
0.733333	1.2
0.766667	1.2
0.8	1.2
0.833333	1.2
0.866667	1.2
0.9	1.2
0.933333	1.2
0.966667	1.2
1	1.2
0	1.24
0.0333333	1.24
0.0666667	1.24
0.1	1.24
0.133333	1.24
0.166667	1.24
0.2	1.24
0.233333	1.24
0.266667	1.24
0.3	1.24
0.333333	1.24
0.366667	1.24
0.4	1.24
0.433333	1.24
0.466667	1.24
0.5	1.24
0.533333	1.24
0.566667	1.24
0.6	1.24
0.633333	1.24
0.666667	1.24
0.7	1.24
0.733333	1.24
0.766667	1.24
0.8	1.24
0.833333	1.24
0.866667	1.24
0.9	1.24
0.933333	1.24
0.966667	1.24
1	1.24
0	1.28
0.0333333	1.28
0.0666667	1.28
0.1	1.28
0.133333	1.28
0.166667	1.28
0.2	1.28
0.233333	1.28
0.266667	1.28
0.3	1.28
0.333333	1.28
0.366667	1.28
0.4	1.28
0.433333	1.28
0.466667	1.28
0.5	1.28
0.533333	1.28
0.566667	1.28
0.6	1.28
0.633333	1.28
0.666667	1.28
0.7	1.28
0.733333	1.28
0.766667	1.28
0.8	1.28
0.833333	1.28
0.866667	1.28
0.9	1.28
0.933333	1.28
0.966667	1.28
1	1.28
0	1.32
0.0333333	1.32
0.0666667	1.32
0.1	1.32
0.133333	1.32
0.166667	1.32
0.2	1.32
0.233333	1.32
0.266667	1.32
0.3	1.32
0.333333	1.32
0.366667	1.32
0.4	1.32
0.433333	1.32
0.466667	1.32
0.5	1.32
0.533333	1.32
0.566667	1.32
0.6	1.32
0.633333	1.32
0.666667	1.32
0.7	1.32
0.733333	1.32
0.766667	1.32
0.8	1.32
0.833333	1.32
0.866667	1.32
0.9	1.32
0.933333	1.32
0.966667	1.32
1	1.32
0	1.36
0.0333333	1.36
0.0666667	1.36
0.1	1.36
0.133333	1.36
0.166667	1.36
0.2	1.36
0.233333	1.36
0.266667	1.36
0.3	1.36
0.333333	1.36
0.366667	1.36
0.4	1.36
0.433333	1.36
0.466667	1.36
0.5	1.36
0.533333	1.36
0.566667	1.36
0.6	1.36
0.633333	1.36
0.666667	1.36
0.7	1.36
0.733333	1.36
0.766667	1.36
0.8	1.36
0.833333	1.36
0.866667	1.36
0.9	1.36
0.933333	1.36
0.966667	1.36
1	1.36
0	1.4
0.0333333	1.4
0.0666667	1.4
0.1	1.4
0.133333	1.4
0.166667	1.4
0.2	1.4
0.233333	1.4
0.266667	1.4
0.3	1.4
0.333333	1.4
0.366667	1.4
0.4	1.4
0.433333	1.4
0.466667	1.4
0.5	1.4
0.533333	1.4
0.566667	1.4
0.6	1.4
0.633333	1.4
0.666667	1.4
0.7	1.4
0.733333	1.4
0.766667	1.4
0.8	1.4
0.833333	1.4
0.866667	1.4
0.9	1.4
0.933333	1.4
0.966667	1.4
1	1.4
0	1.44
0.0333333	1.44
0.0666667	1.44
0.1	1.44
0.133333	1.44
0.166667	1.44
0.2	1.44
0.233333	1.44
0.266667	1.44
0.3	1.44
0.333333	1.44
0.366667	1.44
0.4	1.44
0.433333	1.44
0.466667	1.44
0.5	1.44
0.533333	1.44
0.566667	1.44
0.6	1.44
0.633333	1.44
0.666667	1.44
0.7	1.44
0.733333	1.44
0.766667	1.44
0.8	1.44
0.833333	1.44
0.866667	1.44
0.9	1.44
0.933333	1.44
0.966667	1.44
1	1.44
0	1.48
0.0333333	1.48
0.0666667	1.48
0.1	1.48
0.133333	1.48
0.166667	1.48
0.2	1.48
0.233333	1.48
0.266667	1.48
0.3	1.48
0.333333	1.48
0.366667	1.48
0.4	1.48
0.433333	1.48
0.466667	1.48
0.5	1.48
0.533333	1.48
0.566667	1.48
0.6	1.48
0.633333	1.48
0.666667	1.48
0.7	1.48
0.733333	1.48
0.766667	1.48
0.8	1.48
0.833333	1.48
0.866667	1.48
0.9	1.48
0.933333	1.48
0.966667	1.48
1	1.48
0	1.52
0.0333333	1.52
0.0666667	1.52
0.1	1.52
0.133333	1.52
0.166667	1.52
0.2	1.52
0.233333	1.52
0.266667	1.52
0.3	1.52
0.333333	1.52
0.366667	1.52
0.4	1.52
0.433333	1.52
0.466667	1.52
0.5	1.52
0.533333	1.52
0.566667	1.52
0.6	1.52
0.633333	1.52
0.666667	1.52
0.7	1.52
0.733333	1.52
0.766667	1.52
0.8	1.52
0.833333	1.52
0.866667	1.52
0.9	1.52
0.933333	1.52
0.966667	1.52
1	1.52
0	1.56
0.0333333	1.56
0.0666667	1.56
0.1	1.56
0.133333	1.56
0.166667	1.56
0.2	1.56
0.233333	1.56
0.266667	1.56
0.3	1.56
0.333333	1.56
0.366667	1.56
0.4	1.56
0.433333	1.56
0.466667	1.56
0.5	1.56
0.533333	1.56
0.566667	1.56
0.6	1.56
0.633333	1.56
0.666667	1.56
0.7	1.56
0.733333	1.56
0.766667	1.56
0.8	1.56
0.833333	1.56
0.866667	1.56
0.9	1.56
0.933333	1.56
0.966667	1.56
1	1.56
0	1.6
0.0333333	1.6
0.0666667	1.6
0.1	1.6
0.133333	1.6
0.166667	1.6
0.2	1.6
0.233333	1.6
0.266667	1.6
0.3	1.6
0.333333	1.6
0.366667	1.6
0.4	1.6
0.433333	1.6
0.466667	1.6
0.5	1.6
0.533333	1.6
0.566667	1.6
0.6	1.6
0.633333	1.6
0.666667	1.6
0.7	1.6
0.733333	1.6
0.766667	1.6
0.8	1.6
0.833333	1.6
0.866667	1.6
0.9	1.6
0.933333	1.6
0.966667	1.6
1	1.6
0	1.64
0.0333333	1.64
0.0666667	1.64
0.1	1.64
0.133333	1.64
0.166667	1.64
0.2	1.64
0.233333	1.64
0.266667	1.64
0.3	1.64
0.333333	1.64
0.366667	1.64
0.4	1.64
0.433333	1.64
0.466667	1.64
0.5	1.64
0.533333	1.64
0.566667	1.64
0.6	1.64
0.633333	1.64
0.666667	1.64
0.7	1.64
0.733333	1.64
0.766667	1.64
0.8	1.64
0.833333	1.64
0.866667	1.64
0.9	1.64
0.933333	1.64
0.966667	1.64
1	1.64
0	1.68
0.0333333	1.68
0.0666667	1.68
0.1	1.68
0.133333	1.68
0.166667	1.68
0.2	1.68
0.233333	1.68
0.266667	1.68
0.3	1.68
0.333333	1.68
0.366667	1.68
0.4	1.68
0.433333	1.68
0.466667	1.68
0.5	1.68
0.533333	1.68
0.566667	1.68
0.6	1.68
0.633333	1.68
0.666667	1.68
0.7	1.68
0.733333	1.68
0.766667	1.68
0.8	1.68
0.833333	1.68
0.866667	1.68
0.9	1.68
0.933333	1.68
0.966667	1.68
1	1.68
0	1.72
0.0333333	1.72
0.0666667	1.72
0.1	1.72
0.133333	1.72
0.166667	1.72
0.2	1.72
0.233333	1.72
0.266667	1.72
0.3	1.72
0.333333	1.72
0.366667	1.72
0.4	1.72
0.433333	1.72
0.466667	1.72
0.5	1.72
0.533333	1.72
0.566667	1.72
0.6	1.72
0.633333	1.72
0.666667	1.72
0.7	1.72
0.733333	1.72
0.766667	1.72
0.8	1.72
0.833333	1.72
0.866667	1.72
0.9	1.72
0.933333	1.72
0.966667	1.72
1	1.72
0	1.76
0.0333333	1.76
0.0666667	1.76
0.1	1.76
0.133333	1.76
0.166667	1.76
0.2	1.76
0.233333	1.76
0.266667	1.76
0.3	1.76
0.333333	1.76
0.366667	1.76
0.4	1.76
0.433333	1.76
0.466667	1.76
0.5	1.76
0.533333	1.76
0.566667	1.76
0.6	1.76
0.633333	1.76
0.666667	1.76
0.7	1.76
0.733333	1.76
0.766667	1.76
0.8	1.76
0.833333	1.76
0.866667	1.76
0.9	1.76
0.933333	1.76
0.966667	1.76
1	1.76
0	1.8
0.0333333	1.8
0.0666667	1.8
0.1	1.8
0.133333	1.8
0.166667	1.8
0.2	1.8
0.233333	1.8
0.266667	1.8
0.3	1.8
0.333333	1.8
0.366667	1.8
0.4	1.8
0.433333	1.8
0.466667	1.8
0.5	1.8
0.533333	1.8
0.566667	1.8
0.6	1.8
0.633333	1.8
0.666667	1.8
0.7	1.8
0.733333	1.8
0.766667	1.8
0.8	1.8
0.833333	1.8
0.866667	1.8
0.9	1.8
0.933333	1.8
0.966667	1.8
1	1.8
0	1.84
0.0333333	1.84
0.0666667	1.84
0.1	1.84
0.133333	1.84
0.166667	1.84
0.2	1.84
0.233333	1.84
0.266667	1.84
0.3	1.84
0.333333	1.84
0.366667	1.84
0.4	1.84
0.433333	1.84
0.466667	1.84
0.5	1.84
0.533333	1.84
0.566667	1.84
0.6	1.84
0.633333	1.84
0.666667	1.84
0.7	1.84
0.733333	1.84
0.766667	1.84
0.8	1.84
0.833333	1.84
0.866667	1.84
0.9	1.84
0.933333	1.84
0.966667	1.84
1	1.84
0	1.88
0.0333333	1.88
0.0666667	1.88
0.1	1.88
0.133333	1.88
0.166667	1.88
0.2	1.88
0.233333	1.88
0.266667	1.88
0.3	1.88
0.333333	1.88
0.366667	1.88
0.4	1.88
0.433333	1.88
0.466667	1.88
0.5	1.88
0.533333	1.88
0.566667	1.88
0.6	1.88
0.633333	1.88
0.666667	1.88
0.7	1.88
0.733333	1.88
0.766667	1.88
0.8	1.88
0.833333	1.88
0.866667	1.88
0.9	1.88
0.933333	1.88
0.966667	1.88
1	1.88
0	1.92
0.0333333	1.92
0.0666667	1.92
0.1	1.92
0.133333	1.92
0.166667	1.92
0.2	1.92
0.233333	1.92
0.266667	1.92
0.3	1.92
0.333333	1.92
0.366667	1.92
0.4	1.92
0.433333	1.92
0.466667	1.92
0.5	1.92
0.533333	1.92
0.566667	1.92
0.6	1.92
0.633333	1.92
0.666667	1.92
0.7	1.92
0.733333	1.92
0.766667	1.92
0.8	1.92
0.833333	1.92
0.866667	1.92
0.9	1.92
0.933333	1.92
0.966667	1.92
1	1.92
0	1.96
0.0333333	1.96
0.0666667	1.96
0.1	1.96
0.133333	1.96
0.166667	1.96
0.2	1.96
0.233333	1.96
0.266667	1.96
0.3	1.96
0.333333	1.96
0.366667	1.96
0.4	1.96
0.433333	1.96
0.466667	1.96
0.5	1.96
0.533333	1.96
0.566667	1.96
0.6	1.96
0.633333	1.96
0.666667	1.96
0.7	1.96
0.733333	1.96
0.766667	1.96
0.8	1.96
0.833333	1.96
0.866667	1.96
0.9	1.96
0.933333	1.96
0.966667	1.96
1	1.96
0	2
0.0333333	2
0.0666667	2
0.1	2
0.133333	2
0.166667	2
0.2	2
0.233333	2
0.266667	2
0.3	2
0.333333	2
0.366667	2
0.4	2
0.433333	2
0.466667	2
0.5	2
0.533333	2
0.566667	2
0.6	2
0.633333	2
0.666667	2
0.7	2
0.733333	2
0.766667	2
0.8	2
0.833333	2
0.866667	2
0.9	2
0.933333	2
0.966667	2
1	2
