VARIABLES = X Y
ZONE I = 31, J = 51, F = POINT
0	0
0.0333333	0
0.0666667	0
0.1	0
0.133333	0
0.166667	0
0.2	0
0.233333	0
0.266667	0
0.3	0
0.333333	0
0.366667	0
0.4	0
0.433333	0
0.466667	0
0.5	0
0.533333	0
0.566667	0
0.6	0
0.633333	0
0.666667	0
0.7	0
0.733333	0
0.766667	0
0.8	0
0.833333	0
0.866667	0
0.9	0
0.933333	0
0.966667	0
1	0
0	0.056476
0.0333333	0.056476
0.0666667	0.056476
0.1	0.056476
0.133333	0.056476
0.166667	0.056476
0.2	0.056476
0.233333	0.056476
0.266667	0.056476
0.3	0.056476
0.333333	0.056476
0.366667	0.056476
0.4	0.056476
0.433333	0.056476
0.466667	0.056476
0.5	0.056476
0.533333	0.056476
0.566667	0.056476
0.6	0.056476
0.633333	0.056476
0.666667	0.056476
0.7	0.056476
0.733333	0.056476
0.766667	0.056476
0.8	0.056476
0.833333	0.056476
0.866667	0.056476
0.9	0.056476
0.933333	0.056476
0.966667	0.056476
1	0.056476
0	0.108528
0.0333333	0.108528
0.0666667	0.108528
0.1	0.108528
0.133333	0.108528
0.166667	0.108528
0.2	0.108528
0.233333	0.108528
0.266667	0.108528
0.3	0.108528
0.333333	0.108528
0.366667	0.108528
0.4	0.108528
0.433333	0.108528
0.466667	0.108528
0.5	0.108528
0.533333	0.108528
0.566667	0.108528
0.6	0.108528
0.633333	0.108528
0.666667	0.108528
0.7	0.108528
0.733333	0.108528
0.766667	0.108528
0.8	0.108528
0.833333	0.108528
0.866667	0.108528
0.9	0.108528
0.933333	0.108528
0.966667	0.108528
1	0.108528
0	0.156336
0.0333333	0.156336
0.0666667	0.156336
0.1	0.156336
0.133333	0.156336
0.166667	0.156336
0.2	0.156336
0.233333	0.156336
0.266667	0.156336
0.3	0.156336
0.333333	0.156336
0.366667	0.156336
0.4	0.156336
0.433333	0.156336
0.466667	0.156336
0.5	0.156336
0.533333	0.156336
0.566667	0.156336
0.6	0.156336
0.633333	0.156336
0.666667	0.156336
0.7	0.156336
0.733333	0.156336
0.766667	0.156336
0.8	0.156336
0.833333	0.156336
0.866667	0.156336
0.9	0.156336
0.933333	0.156336
0.966667	0.156336
1	0.156336
0	0.200081
0.0333333	0.200081
0.0666667	0.200081
0.1	0.200081
0.133333	0.200081
0.166667	0.200081
0.2	0.200081
0.233333	0.200081
0.266667	0.200081
0.3	0.200081
0.333333	0.200081
0.366667	0.200081
0.4	0.200081
0.433333	0.200081
0.466667	0.200081
0.5	0.200081
0.533333	0.200081
0.566667	0.200081
0.6	0.200081
0.633333	0.200081
0.666667	0.200081
0.7	0.200081
0.733333	0.200081
0.766667	0.200081
0.8	0.200081
0.833333	0.200081
0.866667	0.200081
0.9	0.200081
0.933333	0.200081
0.966667	0.200081
1	0.200081
0	0.239944
0.0333333	0.239944
0.0666667	0.239944
0.1	0.239944
0.133333	0.239944
0.166667	0.239944
0.2	0.239944
0.233333	0.239944
0.266667	0.239944
0.3	0.239944
0.333333	0.239944
0.366667	0.239944
0.4	0.239944
0.433333	0.239944
0.466667	0.239944
0.5	0.239944
0.533333	0.239944
0.566667	0.239944
0.6	0.239944
0.633333	0.239944
0.666667	0.239944
0.7	0.239944
0.733333	0.239944
0.766667	0.239944
0.8	0.239944
0.833333	0.239944
0.866667	0.239944
0.9	0.239944
0.933333	0.239944
0.966667	0.239944
1	0.239944
0	0.276105
0.0333333	0.276105
0.0666667	0.276105
0.1	0.276105
0.133333	0.276105
0.166667	0.276105
0.2	0.276105
0.233333	0.276105
0.266667	0.276105
0.3	0.276105
0.333333	0.276105
0.366667	0.276105
0.4	0.276105
0.433333	0.276105
0.466667	0.276105
0.5	0.276105
0.533333	0.276105
0.566667	0.276105
0.6	0.276105
0.633333	0.276105
0.666667	0.276105
0.7	0.276105
0.733333	0.276105
0.766667	0.276105
0.8	0.276105
0.833333	0.276105
0.866667	0.276105
0.9	0.276105
0.933333	0.276105
0.966667	0.276105
1	0.276105
0	0.308745
0.0333333	0.308745
0.0666667	0.308745
0.1	0.308745
0.133333	0.308745
0.166667	0.308745
0.2	0.308745
0.233333	0.308745
0.266667	0.308745
0.3	0.308745
0.333333	0.308745
0.366667	0.308745
0.4	0.308745
0.433333	0.308745
0.466667	0.308745
0.5	0.308745
0.533333	0.308745
0.566667	0.308745
0.6	0.308745
0.633333	0.308745
0.666667	0.308745
0.7	0.308745
0.733333	0.308745
0.766667	0.308745
0.8	0.308745
0.833333	0.308745
0.866667	0.308745
0.9	0.308745
0.933333	0.308745
0.966667	0.308745
1	0.308745
0	0.338043
0.0333333	0.338043
0.0666667	0.338043
0.1	0.338043
0.133333	0.338043
0.166667	0.338043
0.2	0.338043
0.233333	0.338043
0.266667	0.338043
0.3	0.338043
0.333333	0.338043
0.366667	0.338043
0.4	0.338043
0.433333	0.338043
0.466667	0.338043
0.5	0.338043
0.533333	0.338043
0.566667	0.338043
0.6	0.338043
0.633333	0.338043
0.666667	0.338043
0.7	0.338043
0.733333	0.338043
0.766667	0.338043
0.8	0.338043
0.833333	0.338043
0.866667	0.338043
0.9	0.338043
0.933333	0.338043
0.966667	0.338043
1	0.338043
0	0.364182
0.0333333	0.364182
0.0666667	0.364182
0.1	0.364182
0.133333	0.364182
0.166667	0.364182
0.2	0.364182
0.233333	0.364182
0.266667	0.364182
0.3	0.364182
0.333333	0.364182
0.366667	0.364182
0.4	0.364182
0.433333	0.364182
0.466667	0.364182
0.5	0.364182
0.533333	0.364182
0.566667	0.364182
0.6	0.364182
0.633333	0.364182
0.666667	0.364182
0.7	0.364182
0.733333	0.364182
0.766667	0.364182
0.8	0.364182
0.833333	0.364182
0.866667	0.364182
0.9	0.364182
0.933333	0.364182
0.966667	0.364182
1	0.364182
0	0.387341
0.0333333	0.387341
0.0666667	0.387341
0.1	0.387341
0.133333	0.387341
0.166667	0.387341
0.2	0.387341
0.233333	0.387341
0.266667	0.387341
0.3	0.387341
0.333333	0.387341
0.366667	0.387341
0.4	0.387341
0.433333	0.387341
0.466667	0.387341
0.5	0.387341
0.533333	0.387341
0.566667	0.387341
0.6	0.387341
0.633333	0.387341
0.666667	0.387341
0.7	0.387341
0.733333	0.387341
0.766667	0.387341
0.8	0.387341
0.833333	0.387341
0.866667	0.387341
0.9	0.387341
0.933333	0.387341
0.966667	0.387341
1	0.387341
0	0.407702
0.0333333	0.407702
0.0666667	0.407702
0.1	0.407702
0.133333	0.407702
0.166667	0.407702
0.2	0.407702
0.233333	0.407702
0.266667	0.407702
0.3	0.407702
0.333333	0.407702
0.366667	0.407702
0.4	0.407702
0.433333	0.407702
0.466667	0.407702
0.5	0.407702
0.533333	0.407702
0.566667	0.407702
0.6	0.407702
0.633333	0.407702
0.666667	0.407702
0.7	0.407702
0.733333	0.407702
0.766667	0.407702
0.8	0.407702
0.833333	0.407702
0.866667	0.407702
0.9	0.407702
0.933333	0.407702
0.966667	0.407702
1	0.407702
0	0.425444
0.0333333	0.425444
0.0666667	0.425444
0.1	0.425444
0.133333	0.425444
0.166667	0.425444
0.2	0.425444
0.233333	0.425444
0.266667	0.425444
0.3	0.425444
0.333333	0.425444
0.366667	0.425444
0.4	0.425444
0.433333	0.425444
0.466667	0.425444
0.5	0.425444
0.533333	0.425444
0.566667	0.425444
0.6	0.425444
0.633333	0.425444
0.666667	0.425444
0.7	0.425444
0.733333	0.425444
0.766667	0.425444
0.8	0.425444
0.833333	0.425444
0.866667	0.425444
0.9	0.425444
0.933333	0.425444
0.966667	0.425444
1	0.425444
0	0.440748
0.0333333	0.440748
0.0666667	0.440748
0.1	0.440748
0.133333	0.440748
0.166667	0.440748
0.2	0.440748
0.233333	0.440748
0.266667	0.440748
0.3	0.440748
0.333333	0.440748
0.366667	0.440748
0.4	0.440748
0.433333	0.440748
0.466667	0.440748
0.5	0.440748
0.533333	0.440748
0.566667	0.440748
0.6	0.440748
0.633333	0.440748
0.666667	0.440748
0.7	0.440748
0.733333	0.440748
0.766667	0.440748
0.8	0.440748
0.833333	0.440748
0.866667	0.440748
0.9	0.440748
0.933333	0.440748
0.966667	0.440748
1	0.440748
0	0.453794
0.0333333	0.453794
0.0666667	0.453794
0.1	0.453794
0.133333	0.453794
0.166667	0.453794
0.2	0.453794
0.233333	0.453794
0.266667	0.453794
0.3	0.453794
0.333333	0.453794
0.366667	0.453794
0.4	0.453794
0.433333	0.453794
0.466667	0.453794
0.5	0.453794
0.533333	0.453794
0.566667	0.453794
0.6	0.453794
0.633333	0.453794
0.666667	0.453794
0.7	0.453794
0.733333	0.453794
0.766667	0.453794
0.8	0.453794
0.833333	0.453794
0.866667	0.453794
0.9	0.453794
0.933333	0.453794
0.966667	0.453794
1	0.453794
0	0.464765
0.0333333	0.464765
0.0666667	0.464765
0.1	0.464765
0.133333	0.464765
0.166667	0.464765
0.2	0.464765
0.233333	0.464765
0.266667	0.464765
0.3	0.464765
0.333333	0.464765
0.366667	0.464765
0.4	0.464765
0.433333	0.464765
0.466667	0.464765
0.5	0.464765
0.533333	0.464765
0.566667	0.464765
0.6	0.464765
0.633333	0.464765
0.666667	0.464765
0.7	0.464765
0.733333	0.464765
0.766667	0.464765
0.8	0.464765
0.833333	0.464765
0.866667	0.464765
0.9	0.464765
0.933333	0.464765
0.966667	0.464765
1	0.464765
0	0.473839
0.0333333	0.473839
0.0666667	0.473839
0.1	0.473839
0.133333	0.473839
0.166667	0.473839
0.2	0.473839
0.233333	0.473839
0.266667	0.473839
0.3	0.473839
0.333333	0.473839
0.366667	0.473839
0.4	0.473839
0.433333	0.473839
0.466667	0.473839
0.5	0.473839
0.533333	0.473839
0.566667	0.473839
0.6	0.473839
0.633333	0.473839
0.666667	0.473839
0.7	0.473839
0.733333	0.473839
0.766667	0.473839
0.8	0.473839
0.833333	0.473839
0.866667	0.473839
0.9	0.473839
0.933333	0.473839
0.966667	0.473839
1	0.473839
0	0.481197
0.0333333	0.481197
0.0666667	0.481197
0.1	0.481197
0.133333	0.481197
0.166667	0.481197
0.2	0.481197
0.233333	0.481197
0.266667	0.481197
0.3	0.481197
0.333333	0.481197
0.366667	0.481197
0.4	0.481197
0.433333	0.481197
0.466667	0.481197
0.5	0.481197
0.533333	0.481197
0.566667	0.481197
0.6	0.481197
0.633333	0.481197
0.666667	0.481197
0.7	0.481197
0.733333	0.481197
0.766667	0.481197
0.8	0.481197
0.833333	0.481197
0.866667	0.481197
0.9	0.481197
0.933333	0.481197
0.966667	0.481197
1	0.481197
0	0.487021
0.0333333	0.487021
0.0666667	0.487021
0.1	0.487021
0.133333	0.487021
0.166667	0.487021
0.2	0.487021
0.233333	0.487021
0.266667	0.487021
0.3	0.487021
0.333333	0.487021
0.366667	0.487021
0.4	0.487021
0.433333	0.487021
0.466667	0.487021
0.5	0.487021
0.533333	0.487021
0.566667	0.487021
0.6	0.487021
0.633333	0.487021
0.666667	0.487021
0.7	0.487021
0.733333	0.487021
0.766667	0.487021
0.8	0.487021
0.833333	0.487021
0.866667	0.487021
0.9	0.487021
0.933333	0.487021
0.966667	0.487021
1	0.487021
0	0.49149
0.0333333	0.49149
0.0666667	0.49149
0.1	0.49149
0.133333	0.49149
0.166667	0.49149
0.2	0.49149
0.233333	0.49149
0.266667	0.49149
0.3	0.49149
0.333333	0.49149
0.366667	0.49149
0.4	0.49149
0.433333	0.49149
0.466667	0.49149
0.5	0.49149
0.533333	0.49149
0.566667	0.49149
0.6	0.49149
0.633333	0.49149
0.666667	0.49149
0.7	0.49149
0.733333	0.49149
0.766667	0.49149
0.8	0.49149
0.833333	0.49149
0.866667	0.49149
0.9	0.49149
0.933333	0.49149
0.966667	0.49149
1	0.49149
0	0.494786
0.0333333	0.494786
0.0666667	0.494786
0.1	0.494786
0.133333	0.494786
0.166667	0.494786
0.2	0.494786
0.233333	0.494786
0.266667	0.494786
0.3	0.494786
0.333333	0.494786
0.366667	0.494786
0.4	0.494786
0.433333	0.494786
0.466667	0.494786
0.5	0.494786
0.533333	0.494786
0.566667	0.494786
0.6	0.494786
0.633333	0.494786
0.666667	0.494786
0.7	0.494786
0.733333	0.494786
0.766667	0.494786
0.8	0.494786
0.833333	0.494786
0.866667	0.494786
0.9	0.494786
0.933333	0.494786
0.966667	0.494786
1	0.494786
0	0.497088
0.0333333	0.497088
0.0666667	0.497088
0.1	0.497088
0.133333	0.497088
0.166667	0.497088
0.2	0.497088
0.233333	0.497088
0.266667	0.497088
0.3	0.497088
0.333333	0.497088
0.366667	0.497088
0.4	0.497088
0.433333	0.497088
0.466667	0.497088
0.5	0.497088
0.533333	0.497088
0.566667	0.497088
0.6	0.497088
0.633333	0.497088
0.666667	0.497088
0.7	0.497088
0.733333	0.497088
0.766667	0.497088
0.8	0.497088
0.833333	0.497088
0.866667	0.497088
0.9	0.497088
0.933333	0.497088
0.966667	0.497088
1	0.497088
0	0.498578
0.0333333	0.498578
0.0666667	0.498578
0.1	0.498578
0.133333	0.498578
0.166667	0.498578
0.2	0.498578
0.233333	0.498578
0.266667	0.498578
0.3	0.498578
0.333333	0.498578
0.366667	0.498578
0.4	0.498578
0.433333	0.498578
0.466667	0.498578
0.5	0.498578
0.533333	0.498578
0.566667	0.498578
0.6	0.498578
0.633333	0.498578
0.666667	0.498578
0.7	0.498578
0.733333	0.498578
0.766667	0.498578
0.8	0.498578
0.833333	0.498578
0.866667	0.498578
0.9	0.498578
0.933333	0.498578
0.966667	0.498578
1	0.498578
0	0.499436
0.0333333	0.499436
0.0666667	0.499436
0.1	0.499436
0.133333	0.499436
0.166667	0.499436
0.2	0.499436
0.233333	0.499436
0.266667	0.499436
0.3	0.499436
0.333333	0.499436
0.366667	0.499436
0.4	0.499436
0.433333	0.499436
0.466667	0.499436
0.5	0.499436
0.533333	0.499436
0.566667	0.499436
0.6	0.499436
0.633333	0.499436
0.666667	0.499436
0.7	0.499436
0.733333	0.499436
0.766667	0.499436
0.8	0.499436
0.833333	0.499436
0.866667	0.499436
0.9	0.499436
0.933333	0.499436
0.966667	0.499436
1	0.499436
0	0.499842
0.0333333	0.499842
0.0666667	0.499842
0.1	0.499842
0.133333	0.499842
0.166667	0.499842
0.2	0.499842
0.233333	0.499842
0.266667	0.499842
0.3	0.499842
0.333333	0.499842
0.366667	0.499842
0.4	0.499842
0.433333	0.499842
0.466667	0.499842
0.5	0.499842
0.533333	0.499842
0.566667	0.499842
0.6	0.499842
0.633333	0.499842
0.666667	0.499842
0.7	0.499842
0.733333	0.499842
0.766667	0.499842
0.8	0.499842
0.833333	0.499842
0.866667	0.499842
0.9	0.499842
0.933333	0.499842
0.966667	0.499842
1	0.499842
0	0.499977
0.0333333	0.499977
0.0666667	0.499977
0.1	0.499977
0.133333	0.499977
0.166667	0.499977
0.2	0.499977
0.233333	0.499977
0.266667	0.499977
0.3	0.499977
0.333333	0.499977
0.366667	0.499977
0.4	0.499977
0.433333	0.499977
0.466667	0.499977
0.5	0.499977
0.533333	0.499977
0.566667	0.499977
0.6	0.499977
0.633333	0.499977
0.666667	0.499977
0.7	0.499977
0.733333	0.499977
0.766667	0.499977
0.8	0.499977
0.833333	0.499977
0.866667	0.499977
0.9	0.499977
0.933333	0.499977
0.966667	0.499977
1	0.499977
0	0.500023
0.0333333	0.500023
0.0666667	0.500023
0.1	0.500023
0.133333	0.500023
0.166667	0.500023
0.2	0.500023
0.233333	0.500023
0.266667	0.500023
0.3	0.500023
0.333333	0.500023
0.366667	0.500023
0.4	0.500023
0.433333	0.500023
0.466667	0.500023
0.5	0.500023
0.533333	0.500023
0.566667	0.500023
0.6	0.500023
0.633333	0.500023
0.666667	0.500023
0.7	0.500023
0.733333	0.500023
0.766667	0.500023
0.8	0.500023
0.833333	0.500023
0.866667	0.500023
0.9	0.500023
0.933333	0.500023
0.966667	0.500023
1	0.500023
0	0.500158
0.0333333	0.500158
0.0666667	0.500158
0.1	0.500158
0.133333	0.500158
0.166667	0.500158
0.2	0.500158
0.233333	0.500158
0.266667	0.500158
0.3	0.500158
0.333333	0.500158
0.366667	0.500158
0.4	0.500158
0.433333	0.500158
0.466667	0.500158
0.5	0.500158
0.533333	0.500158
0.566667	0.500158
0.6	0.500158
0.633333	0.500158
0.666667	0.500158
0.7	0.500158
0.733333	0.500158
0.766667	0.500158
0.8	0.500158
0.833333	0.500158
0.866667	0.500158
0.9	0.500158
0.933333	0.500158
0.966667	0.500158
1	0.500158
0	0.500564
0.0333333	0.500564
0.0666667	0.500564
0.1	0.500564
0.133333	0.500564
0.166667	0.500564
0.2	0.500564
0.233333	0.500564
0.266667	0.500564
0.3	0.500564
0.333333	0.500564
0.366667	0.500564
0.4	0.500564
0.433333	0.500564
0.466667	0.500564
0.5	0.500564
0.533333	0.500564
0.566667	0.500564
0.6	0.500564
0.633333	0.500564
0.666667	0.500564
0.7	0.500564
0.733333	0.500564
0.766667	0.500564
0.8	0.500564
0.833333	0.500564
0.866667	0.500564
0.9	0.500564
0.933333	0.500564
0.966667	0.500564
1	0.500564
0	0.501422
0.0333333	0.501422
0.0666667	0.501422
0.1	0.501422
0.133333	0.501422
0.166667	0.501422
0.2	0.501422
0.233333	0.501422
0.266667	0.501422
0.3	0.501422
0.333333	0.501422
0.366667	0.501422
0.4	0.501422
0.433333	0.501422
0.466667	0.501422
0.5	0.501422
0.533333	0.501422
0.566667	0.501422
0.6	0.501422
0.633333	0.501422
0.666667	0.501422
0.7	0.501422
0.733333	0.501422
0.766667	0.501422
0.8	0.501422
0.833333	0.501422
0.866667	0.501422
0.9	0.501422
0.933333	0.501422
0.966667	0.501422
1	0.501422
0	0.502912
0.0333333	0.502912
0.0666667	0.502912
0.1	0.502912
0.133333	0.502912
0.166667	0.502912
0.2	0.502912
0.233333	0.502912
0.266667	0.502912
0.3	0.502912
0.333333	0.502912
0.366667	0.502912
0.4	0.502912
0.433333	0.502912
0.466667	0.502912
0.5	0.502912
0.533333	0.502912
0.566667	0.502912
0.6	0.502912
0.633333	0.502912
0.666667	0.502912
0.7	0.502912
0.733333	0.502912
0.766667	0.502912
0.8	0.502912
0.833333	0.502912
0.866667	0.502912
0.9	0.502912
0.933333	0.502912
0.966667	0.502912
1	0.502912
0	0.505214
0.0333333	0.505214
0.0666667	0.505214
0.1	0.505214
0.133333	0.505214
0.166667	0.505214
0.2	0.505214
0.233333	0.505214
0.266667	0.505214
0.3	0.505214
0.333333	0.505214
0.366667	0.505214
0.4	0.505214
0.433333	0.505214
0.466667	0.505214
0.5	0.505214
0.533333	0.505214
0.566667	0.505214
0.6	0.505214
0.633333	0.505214
0.666667	0.505214
0.7	0.505214
0.733333	0.505214
0.766667	0.505214
0.8	0.505214
0.833333	0.505214
0.866667	0.505214
0.9	0.505214
0.933333	0.505214
0.966667	0.505214
1	0.505214
0	0.50851
0.0333333	0.50851
0.0666667	0.50851
0.1	0.50851
0.133333	0.50851
0.166667	0.50851
0.2	0.50851
0.233333	0.50851
0.266667	0.50851
0.3	0.50851
0.333333	0.50851
0.366667	0.50851
0.4	0.50851
0.433333	0.50851
0.466667	0.50851
0.5	0.50851
0.533333	0.50851
0.566667	0.50851
0.6	0.50851
0.633333	0.50851
0.666667	0.50851
0.7	0.50851
0.733333	0.50851
0.766667	0.50851
0.8	0.50851
0.833333	0.50851
0.866667	0.50851
0.9	0.50851
0.933333	0.50851
0.966667	0.50851
1	0.50851
0	0.512979
0.0333333	0.512979
0.0666667	0.512979
0.1	0.512979
0.133333	0.512979
0.166667	0.512979
0.2	0.512979
0.233333	0.512979
0.266667	0.512979
0.3	0.512979
0.333333	0.512979
0.366667	0.512979
0.4	0.512979
0.433333	0.512979
0.466667	0.512979
0.5	0.512979
0.533333	0.512979
0.566667	0.512979
0.6	0.512979
0.633333	0.512979
0.666667	0.512979
0.7	0.512979
0.733333	0.512979
0.766667	0.512979
0.8	0.512979
0.833333	0.512979
0.866667	0.512979
0.9	0.512979
0.933333	0.512979
0.966667	0.512979
1	0.512979
0	0.518803
0.0333333	0.518803
0.0666667	0.518803
0.1	0.518803
0.133333	0.518803
0.166667	0.518803
0.2	0.518803
0.233333	0.518803
0.266667	0.518803
0.3	0.518803
0.333333	0.518803
0.366667	0.518803
0.4	0.518803
0.433333	0.518803
0.466667	0.518803
0.5	0.518803
0.533333	0.518803
0.566667	0.518803
0.6	0.518803
0.633333	0.518803
0.666667	0.518803
0.7	0.518803
0.733333	0.518803
0.766667	0.518803
0.8	0.518803
0.833333	0.518803
0.866667	0.518803
0.9	0.518803
0.933333	0.518803
0.966667	0.518803
1	0.518803
0	0.526161
0.0333333	0.526161
0.0666667	0.526161
0.1	0.526161
0.133333	0.526161
0.166667	0.526161
0.2	0.526161
0.233333	0.526161
0.266667	0.526161
0.3	0.526161
0.333333	0.526161
0.366667	0.526161
0.4	0.526161
0.433333	0.526161
0.466667	0.526161
0.5	0.526161
0.533333	0.526161
0.566667	0.526161
0.6	0.526161
0.633333	0.526161
0.666667	0.526161
0.7	0.526161
0.733333	0.526161
0.766667	0.526161
0.8	0.526161
0.833333	0.526161
0.866667	0.526161
0.9	0.526161
0.933333	0.526161
0.966667	0.526161
1	0.526161
0	0.535235
0.0333333	0.535235
0.0666667	0.535235
0.1	0.535235
0.133333	0.535235
0.166667	0.535235
0.2	0.535235
0.233333	0.535235
0.266667	0.535235
0.3	0.535235
0.333333	0.535235
0.366667	0.535235
0.4	0.535235
0.433333	0.535235
0.466667	0.535235
0.5	0.535235
0.533333	0.535235
0.566667	0.535235
0.6	0.535235
0.633333	0.535235
0.666667	0.535235
0.7	0.535235
0.733333	0.535235
0.766667	0.535235
0.8	0.535235
0.833333	0.535235
0.866667	0.535235
0.9	0.535235
0.933333	0.535235
0.966667	0.535235
1	0.535235
0	0.546206
0.0333333	0.546206
0.0666667	0.546206
0.1	0.546206
0.133333	0.546206
0.166667	0.546206
0.2	0.546206
0.233333	0.546206
0.266667	0.546206
0.3	0.546206
0.333333	0.546206
0.366667	0.546206
0.4	0.546206
0.433333	0.546206
0.466667	0.546206
0.5	0.546206
0.533333	0.546206
0.566667	0.546206
0.6	0.546206
0.633333	0.546206
0.666667	0.546206
0.7	0.546206
0.733333	0.546206
0.766667	0.546206
0.8	0.546206
0.833333	0.546206
0.866667	0.546206
0.9	0.546206
0.933333	0.546206
0.966667	0.546206
1	0.546206
0	0.559252
0.0333333	0.559252
0.0666667	0.559252
0.1	0.559252
0.133333	0.559252
0.166667	0.559252
0.2	0.559252
0.233333	0.559252
0.266667	0.559252
0.3	0.559252
0.333333	0.559252
0.366667	0.559252
0.4	0.559252
0.433333	0.559252
0.466667	0.559252
0.5	0.559252
0.533333	0.559252
0.566667	0.559252
0.6	0.559252
0.633333	0.559252
0.666667	0.559252
0.7	0.559252
0.733333	0.559252
0.766667	0.559252
0.8	0.559252
0.833333	0.559252
0.866667	0.559252
0.9	0.559252
0.933333	0.559252
0.966667	0.559252
1	0.559252
0	0.574556
0.0333333	0.574556
0.0666667	0.574556
0.1	0.574556
0.133333	0.574556
0.166667	0.574556
0.2	0.574556
0.233333	0.574556
0.266667	0.574556
0.3	0.574556
0.333333	0.574556
0.366667	0.574556
0.4	0.574556
0.433333	0.574556
0.466667	0.574556
0.5	0.574556
0.533333	0.574556
0.566667	0.574556
0.6	0.574556
0.633333	0.574556
0.666667	0.574556
0.7	0.574556
0.733333	0.574556
0.766667	0.574556
0.8	0.574556
0.833333	0.574556
0.866667	0.574556
0.9	0.574556
0.933333	0.574556
0.966667	0.574556
1	0.574556
0	0.592298
0.0333333	0.592298
0.0666667	0.592298
0.1	0.592298
0.133333	0.592298
0.166667	0.592298
0.2	0.592298
0.233333	0.592298
0.266667	0.592298
0.3	0.592298
0.333333	0.592298
0.366667	0.592298
0.4	0.592298
0.433333	0.592298
0.466667	0.592298
0.5	0.592298
0.533333	0.592298
0.566667	0.592298
0.6	0.592298
0.633333	0.592298
0.666667	0.592298
0.7	0.592298
0.733333	0.592298
0.766667	0.592298
0.8	0.592298
0.833333	0.592298
0.866667	0.592298
0.9	0.592298
0.933333	0.592298
0.966667	0.592298
1	0.592298
0	0.612659
0.0333333	0.612659
0.0666667	0.612659
0.1	0.612659
0.133333	0.612659
0.166667	0.612659
0.2	0.612659
0.233333	0.612659
0.266667	0.612659
0.3	0.612659
0.333333	0.612659
0.366667	0.612659
0.4	0.612659
0.433333	0.612659
0.466667	0.612659
0.5	0.612659
0.533333	0.612659
0.566667	0.612659
0.6	0.612659
0.633333	0.612659
0.666667	0.612659
0.7	0.612659
0.733333	0.612659
0.766667	0.612659
0.8	0.612659
0.833333	0.612659
0.866667	0.612659
0.9	0.612659
0.933333	0.612659
0.966667	0.612659
1	0.612659
0	0.635818
0.0333333	0.635818
0.0666667	0.635818
0.1	0.635818
0.133333	0.635818
0.166667	0.635818
0.2	0.635818
0.233333	0.635818
0.266667	0.635818
0.3	0.635818
0.333333	0.635818
0.366667	0.635818
0.4	0.635818
0.433333	0.635818
0.466667	0.635818
0.5	0.635818
0.533333	0.635818
0.566667	0.635818
0.6	0.635818
0.633333	0.635818
0.666667	0.635818
0.7	0.635818
0.733333	0.635818
0.766667	0.635818
0.8	0.635818
0.833333	0.635818
0.866667	0.635818
0.9	0.635818
0.933333	0.635818
0.966667	0.635818
1	0.635818
0	0.661957
0.0333333	0.661957
0.0666667	0.661957
0.1	0.661957
0.133333	0.661957
0.166667	0.661957
0.2	0.661957
0.233333	0.661957
0.266667	0.661957
0.3	0.661957
0.333333	0.661957
0.366667	0.661957
0.4	0.661957
0.433333	0.661957
0.466667	0.661957
0.5	0.661957
0.533333	0.661957
0.566667	0.661957
0.6	0.661957
0.633333	0.661957
0.666667	0.661957
0.7	0.661957
0.733333	0.661957
0.766667	0.661957
0.8	0.661957
0.833333	0.661957
0.866667	0.661957
0.9	0.661957
0.933333	0.661957
0.966667	0.661957
1	0.661957
0	0.691255
0.0333333	0.691255
0.0666667	0.691255
0.1	0.691255
0.133333	0.691255
0.166667	0.691255
0.2	0.691255
0.233333	0.691255
0.266667	0.691255
0.3	0.691255
0.333333	0.691255
0.366667	0.691255
0.4	0.691255
0.433333	0.691255
0.466667	0.691255
0.5	0.691255
0.533333	0.691255
0.566667	0.691255
0.6	0.691255
0.633333	0.691255
0.666667	0.691255
0.7	0.691255
0.733333	0.691255
0.766667	0.691255
0.8	0.691255
0.833333	0.691255
0.866667	0.691255
0.9	0.691255
0.933333	0.691255
0.966667	0.691255
1	0.691255
0	0.723895
0.0333333	0.723895
0.0666667	0.723895
0.1	0.723895
0.133333	0.723895
0.166667	0.723895
0.2	0.723895
0.233333	0.723895
0.266667	0.723895
0.3	0.723895
0.333333	0.723895
0.366667	0.723895
0.4	0.723895
0.433333	0.723895
0.466667	0.723895
0.5	0.723895
0.533333	0.723895
0.566667	0.723895
0.6	0.723895
0.633333	0.723895
0.666667	0.723895
0.7	0.723895
0.733333	0.723895
0.766667	0.723895
0.8	0.723895
0.833333	0.723895
0.866667	0.723895
0.9	0.723895
0.933333	0.723895
0.966667	0.723895
1	0.723895
0	0.760056
0.0333333	0.760056
0.0666667	0.760056
0.1	0.760056
0.133333	0.760056
0.166667	0.760056
0.2	0.760056
0.233333	0.760056
0.266667	0.760056
0.3	0.760056
0.333333	0.760056
0.366667	0.760056
0.4	0.760056
0.433333	0.760056
0.466667	0.760056
0.5	0.760056
0.533333	0.760056
0.566667	0.760056
0.6	0.760056
0.633333	0.760056
0.666667	0.760056
0.7	0.760056
0.733333	0.760056
0.766667	0.760056
0.8	0.760056
0.833333	0.760056
0.866667	0.760056
0.9	0.760056
0.933333	0.760056
0.966667	0.760056
1	0.760056
0	0.799919
0.0333333	0.799919
0.0666667	0.799919
0.1	0.799919
0.133333	0.799919
0.166667	0.799919
0.2	0.799919
0.233333	0.799919
0.266667	0.799919
0.3	0.799919
0.333333	0.799919
0.366667	0.799919
0.4	0.799919
0.433333	0.799919
0.466667	0.799919
0.5	0.799919
0.533333	0.799919
0.566667	0.799919
0.6	0.799919
0.633333	0.799919
0.666667	0.799919
0.7	0.799919
0.733333	0.799919
0.766667	0.799919
0.8	0.799919
0.833333	0.799919
0.866667	0.799919
0.9	0.799919
0.933333	0.799919
0.966667	0.799919
1	0.799919
0	0.843664
0.0333333	0.843664
0.0666667	0.843664
0.1	0.843664
0.133333	0.843664
0.166667	0.843664
0.2	0.843664
0.233333	0.843664
0.266667	0.843664
0.3	0.843664
0.333333	0.843664
0.366667	0.843664
0.4	0.843664
0.433333	0.843664
0.466667	0.843664
0.5	0.843664
0.533333	0.843664
0.566667	0.843664
0.6	0.843664
0.633333	0.843664
0.666667	0.843664
0.7	0.843664
0.733333	0.843664
0.766667	0.843664
0.8	0.843664
0.833333	0.843664
0.866667	0.843664
0.9	0.843664
0.933333	0.843664
0.966667	0.843664
1	0.843664
0	0.891472
0.0333333	0.891472
0.0666667	0.891472
0.1	0.891472
0.133333	0.891472
0.166667	0.891472
0.2	0.891472
0.233333	0.891472
0.266667	0.891472
0.3	0.891472
0.333333	0.891472
0.366667	0.891472
0.4	0.891472
0.433333	0.891472
0.466667	0.891472
0.5	0.891472
0.533333	0.891472
0.566667	0.891472
0.6	0.891472
0.633333	0.891472
0.666667	0.891472
0.7	0.891472
0.733333	0.891472
0.766667	0.891472
0.8	0.891472
0.833333	0.891472
0.866667	0.891472
0.9	0.891472
0.933333	0.891472
0.966667	0.891472
1	0.891472
0	0.943524
0.0333333	0.943524
0.0666667	0.943524
0.1	0.943524
0.133333	0.943524
0.166667	0.943524
0.2	0.943524
0.233333	0.943524
0.266667	0.943524
0.3	0.943524
0.333333	0.943524
0.366667	0.943524
0.4	0.943524
0.433333	0.943524
0.466667	0.943524
0.5	0.943524
0.533333	0.943524
0.566667	0.943524
0.6	0.943524
0.633333	0.943524
0.666667	0.943524
0.7	0.943524
0.733333	0.943524
0.766667	0.943524
0.8	0.943524
0.833333	0.943524
0.866667	0.943524
0.9	0.943524
0.933333	0.943524
0.966667	0.943524
1	0.943524
