VARIABLES = X Y
ZONE I = 31, J = 51, F = POINT
0	0
0.0333333	0
0.0666667	0
0.1	0
0.133333	0
0.166667	0
0.2	0
0.233333	0
0.266667	0
0.3	0
0.333333	0
0.366667	0
0.4	0
0.433333	0
0.466667	0
0.5	0
0.533333	0
0.566667	0
0.6	0
0.633333	0
0.666667	0
0.7	0
0.733333	0
0.766667	0
0.8	0
0.833333	0
0.866667	0
0.9	0
0.933333	0
0.966667	0
1	0
0	0.0563913
0.0333333	0.0563913
0.0666667	0.0563913
0.1	0.0563913
0.133333	0.0563913
0.166667	0.0563913
0.2	0.0563913
0.233333	0.0563913
0.266667	0.0563913
0.3	0.0563913
0.333333	0.0563913
0.366667	0.0563913
0.4	0.0563913
0.433333	0.0563913
0.466667	0.0563913
0.5	0.0563913
0.533333	0.0563913
0.566667	0.0563913
0.6	0.0563913
0.633333	0.0563913
0.666667	0.0563913
0.7	0.0563913
0.733333	0.0563913
0.766667	0.0563913
0.8	0.0563913
0.833333	0.0563913
0.866667	0.0563913
0.9	0.0563913
0.933333	0.0563913
0.966667	0.0563913
1	0.0563913
0	0.108369
0.0333333	0.108369
0.0666667	0.108369
0.1	0.108369
0.133333	0.108369
0.166667	0.108369
0.2	0.108369
0.233333	0.108369
0.266667	0.108369
0.3	0.108369
0.333333	0.108369
0.366667	0.108369
0.4	0.108369
0.433333	0.108369
0.466667	0.108369
0.5	0.108369
0.533333	0.108369
0.566667	0.108369
0.6	0.108369
0.633333	0.108369
0.666667	0.108369
0.7	0.108369
0.733333	0.108369
0.766667	0.108369
0.8	0.108369
0.833333	0.108369
0.866667	0.108369
0.9	0.108369
0.933333	0.108369
0.966667	0.108369
1	0.108369
0	0.156112
0.0333333	0.156112
0.0666667	0.156112
0.1	0.156112
0.133333	0.156112
0.166667	0.156112
0.2	0.156112
0.233333	0.156112
0.266667	0.156112
0.3	0.156112
0.333333	0.156112
0.366667	0.156112
0.4	0.156112
0.433333	0.156112
0.466667	0.156112
0.5	0.156112
0.533333	0.156112
0.566667	0.156112
0.6	0.156112
0.633333	0.156112
0.666667	0.156112
0.7	0.156112
0.733333	0.156112
0.766667	0.156112
0.8	0.156112
0.833333	0.156112
0.866667	0.156112
0.9	0.156112
0.933333	0.156112
0.966667	0.156112
1	0.156112
0	0.199802
0.0333333	0.199802
0.0666667	0.199802
0.1	0.199802
0.133333	0.199802
0.166667	0.199802
0.2	0.199802
0.233333	0.199802
0.266667	0.199802
0.3	0.199802
0.333333	0.199802
0.366667	0.199802
0.4	0.199802
0.433333	0.199802
0.466667	0.199802
0.5	0.199802
0.533333	0.199802
0.566667	0.199802
0.6	0.199802
0.633333	0.199802
0.666667	0.199802
0.7	0.199802
0.733333	0.199802
0.766667	0.199802
0.8	0.199802
0.833333	0.199802
0.866667	0.199802
0.9	0.199802
0.933333	0.199802
0.966667	0.199802
1	0.199802
0	0.239618
0.0333333	0.239618
0.0666667	0.239618
0.1	0.239618
0.133333	0.239618
0.166667	0.239618
0.2	0.239618
0.233333	0.239618
0.266667	0.239618
0.3	0.239618
0.333333	0.239618
0.366667	0.239618
0.4	0.239618
0.433333	0.239618
0.466667	0.239618
0.5	0.239618
0.533333	0.239618
0.566667	0.239618
0.6	0.239618
0.633333	0.239618
0.666667	0.239618
0.7	0.239618
0.733333	0.239618
0.766667	0.239618
0.8	0.239618
0.833333	0.239618
0.866667	0.239618
0.9	0.239618
0.933333	0.239618
0.966667	0.239618
1	0.239618
0	0.275741
0.0333333	0.275741
0.0666667	0.275741
0.1	0.275741
0.133333	0.275741
0.166667	0.275741
0.2	0.275741
0.233333	0.275741
0.266667	0.275741
0.3	0.275741
0.333333	0.275741
0.366667	0.275741
0.4	0.275741
0.433333	0.275741
0.466667	0.275741
0.5	0.275741
0.533333	0.275741
0.566667	0.275741
0.6	0.275741
0.633333	0.275741
0.666667	0.275741
0.7	0.275741
0.733333	0.275741
0.766667	0.275741
0.8	0.275741
0.833333	0.275741
0.866667	0.275741
0.9	0.275741
0.933333	0.275741
0.966667	0.275741
1	0.275741
0	0.308351
0.0333333	0.308351
0.0666667	0.308351
0.1	0.308351
0.133333	0.308351
0.166667	0.308351
0.2	0.308351
0.233333	0.308351
0.266667	0.308351
0.3	0.308351
0.333333	0.308351
0.366667	0.308351
0.4	0.308351
0.433333	0.308351
0.466667	0.308351
0.5	0.308351
0.533333	0.308351
0.566667	0.308351
0.6	0.308351
0.633333	0.308351
0.666667	0.308351
0.7	0.308351
0.733333	0.308351
0.766667	0.308351
0.8	0.308351
0.833333	0.308351
0.866667	0.308351
0.9	0.308351
0.933333	0.308351
0.966667	0.308351
1	0.308351
0	0.337627
0.0333333	0.337627
0.0666667	0.337627
0.1	0.337627
0.133333	0.337627
0.166667	0.337627
0.2	0.337627
0.233333	0.337627
0.266667	0.337627
0.3	0.337627
0.333333	0.337627
0.366667	0.337627
0.4	0.337627
0.433333	0.337627
0.466667	0.337627
0.5	0.337627
0.533333	0.337627
0.566667	0.337627
0.6	0.337627
0.633333	0.337627
0.666667	0.337627
0.7	0.337627
0.733333	0.337627
0.766667	0.337627
0.8	0.337627
0.833333	0.337627
0.866667	0.337627
0.9	0.337627
0.933333	0.337627
0.966667	0.337627
1	0.337627
0	0.363751
0.0333333	0.363751
0.0666667	0.363751
0.1	0.363751
0.133333	0.363751
0.166667	0.363751
0.2	0.363751
0.233333	0.363751
0.266667	0.363751
0.3	0.363751
0.333333	0.363751
0.366667	0.363751
0.4	0.363751
0.433333	0.363751
0.466667	0.363751
0.5	0.363751
0.533333	0.363751
0.566667	0.363751
0.6	0.363751
0.633333	0.363751
0.666667	0.363751
0.7	0.363751
0.733333	0.363751
0.766667	0.363751
0.8	0.363751
0.833333	0.363751
0.866667	0.363751
0.9	0.363751
0.933333	0.363751
0.966667	0.363751
1	0.363751
0	0.386902
0.0333333	0.386902
0.0666667	0.386902
0.1	0.386902
0.133333	0.386902
0.166667	0.386902
0.2	0.386902
0.233333	0.386902
0.266667	0.386902
0.3	0.386902
0.333333	0.386902
0.366667	0.386902
0.4	0.386902
0.433333	0.386902
0.466667	0.386902
0.5	0.386902
0.533333	0.386902
0.566667	0.386902
0.6	0.386902
0.633333	0.386902
0.666667	0.386902
0.7	0.386902
0.733333	0.386902
0.766667	0.386902
0.8	0.386902
0.833333	0.386902
0.866667	0.386902
0.9	0.386902
0.933333	0.386902
0.966667	0.386902
1	0.386902
0	0.407261
0.0333333	0.407261
0.0666667	0.407261
0.1	0.407261
0.133333	0.407261
0.166667	0.407261
0.2	0.407261
0.233333	0.407261
0.266667	0.407261
0.3	0.407261
0.333333	0.407261
0.366667	0.407261
0.4	0.407261
0.433333	0.407261
0.466667	0.407261
0.5	0.407261
0.533333	0.407261
0.566667	0.407261
0.6	0.407261
0.633333	0.407261
0.666667	0.407261
0.7	0.407261
0.733333	0.407261
0.766667	0.407261
0.8	0.407261
0.833333	0.407261
0.866667	0.407261
0.9	0.407261
0.933333	0.407261
0.966667	0.407261
1	0.407261
0	0.425007
0.0333333	0.425007
0.0666667	0.425007
0.1	0.425007
0.133333	0.425007
0.166667	0.425007
0.2	0.425007
0.233333	0.425007
0.266667	0.425007
0.3	0.425007
0.333333	0.425007
0.366667	0.425007
0.4	0.425007
0.433333	0.425007
0.466667	0.425007
0.5	0.425007
0.533333	0.425007
0.566667	0.425007
0.6	0.425007
0.633333	0.425007
0.666667	0.425007
0.7	0.425007
0.733333	0.425007
0.766667	0.425007
0.8	0.425007
0.833333	0.425007
0.866667	0.425007
0.9	0.425007
0.933333	0.425007
0.966667	0.425007
1	0.425007
0	0.440321
0.0333333	0.440321
0.0666667	0.440321
0.1	0.440321
0.133333	0.440321
0.166667	0.440321
0.2	0.440321
0.233333	0.440321
0.266667	0.440321
0.3	0.440321
0.333333	0.440321
0.366667	0.440321
0.4	0.440321
0.433333	0.440321
0.466667	0.440321
0.5	0.440321
0.533333	0.440321
0.566667	0.440321
0.6	0.440321
0.633333	0.440321
0.666667	0.440321
0.7	0.440321
0.733333	0.440321
0.766667	0.440321
0.8	0.440321
0.833333	0.440321
0.866667	0.440321
0.9	0.440321
0.933333	0.440321
0.966667	0.440321
1	0.440321
0	0.453383
0.0333333	0.453383
0.0666667	0.453383
0.1	0.453383
0.133333	0.453383
0.166667	0.453383
0.2	0.453383
0.233333	0.453383
0.266667	0.453383
0.3	0.453383
0.333333	0.453383
0.366667	0.453383
0.4	0.453383
0.433333	0.453383
0.466667	0.453383
0.5	0.453383
0.533333	0.453383
0.566667	0.453383
0.6	0.453383
0.633333	0.453383
0.666667	0.453383
0.7	0.453383
0.733333	0.453383
0.766667	0.453383
0.8	0.453383
0.833333	0.453383
0.866667	0.453383
0.9	0.453383
0.933333	0.453383
0.966667	0.453383
1	0.453383
0	0.464373
0.0333333	0.464373
0.0666667	0.464373
0.1	0.464373
0.133333	0.464373
0.166667	0.464373
0.2	0.464373
0.233333	0.464373
0.266667	0.464373
0.3	0.464373
0.333333	0.464373
0.366667	0.464373
0.4	0.464373
0.433333	0.464373
0.466667	0.464373
0.5	0.464373
0.533333	0.464373
0.566667	0.464373
0.6	0.464373
0.633333	0.464373
0.666667	0.464373
0.7	0.464373
0.733333	0.464373
0.766667	0.464373
0.8	0.464373
0.833333	0.464373
0.866667	0.464373
0.9	0.464373
0.933333	0.464373
0.966667	0.464373
1	0.464373
0	0.473471
0.0333333	0.473471
0.0666667	0.473471
0.1	0.473471
0.133333	0.473471
0.166667	0.473471
0.2	0.473471
0.233333	0.473471
0.266667	0.473471
0.3	0.473471
0.333333	0.473471
0.366667	0.473471
0.4	0.473471
0.433333	0.473471
0.466667	0.473471
0.5	0.473471
0.533333	0.473471
0.566667	0.473471
0.6	0.473471
0.633333	0.473471
0.666667	0.473471
0.7	0.473471
0.733333	0.473471
0.766667	0.473471
0.8	0.473471
0.833333	0.473471
0.866667	0.473471
0.9	0.473471
0.933333	0.473471
0.966667	0.473471
1	0.473471
0	0.480858
0.0333333	0.480858
0.0666667	0.480858
0.1	0.480858
0.133333	0.480858
0.166667	0.480858
0.2	0.480858
0.233333	0.480858
0.266667	0.480858
0.3	0.480858
0.333333	0.480858
0.366667	0.480858
0.4	0.480858
0.433333	0.480858
0.466667	0.480858
0.5	0.480858
0.533333	0.480858
0.566667	0.480858
0.6	0.480858
0.633333	0.480858
0.666667	0.480858
0.7	0.480858
0.733333	0.480858
0.766667	0.480858
0.8	0.480858
0.833333	0.480858
0.866667	0.480858
0.9	0.480858
0.933333	0.480858
0.966667	0.480858
1	0.480858
0	0.486713
0.0333333	0.486713
0.0666667	0.486713
0.1	0.486713
0.133333	0.486713
0.166667	0.486713
0.2	0.486713
0.233333	0.486713
0.266667	0.486713
0.3	0.486713
0.333333	0.486713
0.366667	0.486713
0.4	0.486713
0.433333	0.486713
0.466667	0.486713
0.5	0.486713
0.533333	0.486713
0.566667	0.486713
0.6	0.486713
0.633333	0.486713
0.666667	0.486713
0.7	0.486713
0.733333	0.486713
0.766667	0.486713
0.8	0.486713
0.833333	0.486713
0.866667	0.486713
0.9	0.486713
0.933333	0.486713
0.966667	0.486713
1	0.486713
0	0.491217
0.0333333	0.491217
0.0666667	0.491217
0.1	0.491217
0.133333	0.491217
0.166667	0.491217
0.2	0.491217
0.233333	0.491217
0.266667	0.491217
0.3	0.491217
0.333333	0.491217
0.366667	0.491217
0.4	0.491217
0.433333	0.491217
0.466667	0.491217
0.5	0.491217
0.533333	0.491217
0.566667	0.491217
0.6	0.491217
0.633333	0.491217
0.666667	0.491217
0.7	0.491217
0.733333	0.491217
0.766667	0.491217
0.8	0.491217
0.833333	0.491217
0.866667	0.491217
0.9	0.491217
0.933333	0.491217
0.966667	0.491217
1	0.491217
0	0.49455
0.0333333	0.49455
0.0666667	0.49455
0.1	0.49455
0.133333	0.49455
0.166667	0.49455
0.2	0.49455
0.233333	0.49455
0.266667	0.49455
0.3	0.49455
0.333333	0.49455
0.366667	0.49455
0.4	0.49455
0.433333	0.49455
0.466667	0.49455
0.5	0.49455
0.533333	0.49455
0.566667	0.49455
0.6	0.49455
0.633333	0.49455
0.666667	0.49455
0.7	0.49455
0.733333	0.49455
0.766667	0.49455
0.8	0.49455
0.833333	0.49455
0.866667	0.49455
0.9	0.49455
0.933333	0.49455
0.966667	0.49455
1	0.49455
0	0.496892
0.0333333	0.496892
0.0666667	0.496892
0.1	0.496892
0.133333	0.496892
0.166667	0.496892
0.2	0.496892
0.233333	0.496892
0.266667	0.496892
0.3	0.496892
0.333333	0.496892
0.366667	0.496892
0.4	0.496892
0.433333	0.496892
0.466667	0.496892
0.5	0.496892
0.533333	0.496892
0.566667	0.496892
0.6	0.496892
0.633333	0.496892
0.666667	0.496892
0.7	0.496892
0.733333	0.496892
0.766667	0.496892
0.8	0.496892
0.833333	0.496892
0.866667	0.496892
0.9	0.496892
0.933333	0.496892
0.966667	0.496892
1	0.496892
0	0.498424
0.0333333	0.498424
0.0666667	0.498424
0.1	0.498424
0.133333	0.498424
0.166667	0.498424
0.2	0.498424
0.233333	0.498424
0.266667	0.498424
0.3	0.498424
0.333333	0.498424
0.366667	0.498424
0.4	0.498424
0.433333	0.498424
0.466667	0.498424
0.5	0.498424
0.533333	0.498424
0.566667	0.498424
0.6	0.498424
0.633333	0.498424
0.666667	0.498424
0.7	0.498424
0.733333	0.498424
0.766667	0.498424
0.8	0.498424
0.833333	0.498424
0.866667	0.498424
0.9	0.498424
0.933333	0.498424
0.966667	0.498424
1	0.498424
0	0.499324
0.0333333	0.499324
0.0666667	0.499324
0.1	0.499324
0.133333	0.499324
0.166667	0.499324
0.2	0.499324
0.233333	0.499324
0.266667	0.499324
0.3	0.499324
0.333333	0.499324
0.366667	0.499324
0.4	0.499324
0.433333	0.499324
0.466667	0.499324
0.5	0.499324
0.533333	0.499324
0.566667	0.499324
0.6	0.499324
0.633333	0.499324
0.666667	0.499324
0.7	0.499324
0.733333	0.499324
0.766667	0.499324
0.8	0.499324
0.833333	0.499324
0.866667	0.499324
0.9	0.499324
0.933333	0.499324
0.966667	0.499324
1	0.499324
0	0.499775
0.0333333	0.499775
0.0666667	0.499775
0.1	0.499775
0.133333	0.499775
0.166667	0.499775
0.2	0.499775
0.233333	0.499775
0.266667	0.499775
0.3	0.499775
0.333333	0.499775
0.366667	0.499775
0.4	0.499775
0.433333	0.499775
0.466667	0.499775
0.5	0.499775
0.533333	0.499775
0.566667	0.499775
0.6	0.499775
0.633333	0.499775
0.666667	0.499775
0.7	0.499775
0.733333	0.499775
0.766667	0.499775
0.8	0.499775
0.833333	0.499775
0.866667	0.499775
0.9	0.499775
0.933333	0.499775
0.966667	0.499775
1	0.499775
0	0.499955
0.0333333	0.499955
0.0666667	0.499955
0.1	0.499955
0.133333	0.499955
0.166667	0.499955
0.2	0.499955
0.233333	0.499955
0.266667	0.499955
0.3	0.499955
0.333333	0.499955
0.366667	0.499955
0.4	0.499955
0.433333	0.499955
0.466667	0.499955
0.5	0.499955
0.533333	0.499955
0.566667	0.499955
0.6	0.499955
0.633333	0.499955
0.666667	0.499955
0.7	0.499955
0.733333	0.499955
0.766667	0.499955
0.8	0.499955
0.833333	0.499955
0.866667	0.499955
0.9	0.499955
0.933333	0.499955
0.966667	0.499955
1	0.499955
0	0.500045
0.0333333	0.500045
0.0666667	0.500045
0.1	0.500045
0.133333	0.500045
0.166667	0.500045
0.2	0.500045
0.233333	0.500045
0.266667	0.500045
0.3	0.500045
0.333333	0.500045
0.366667	0.500045
0.4	0.500045
0.433333	0.500045
0.466667	0.500045
0.5	0.500045
0.533333	0.500045
0.566667	0.500045
0.6	0.500045
0.633333	0.500045
0.666667	0.500045
0.7	0.500045
0.733333	0.500045
0.766667	0.500045
0.8	0.500045
0.833333	0.500045
0.866667	0.500045
0.9	0.500045
0.933333	0.500045
0.966667	0.500045
1	0.500045
0	0.500225
0.0333333	0.500225
0.0666667	0.500225
0.1	0.500225
0.133333	0.500225
0.166667	0.500225
0.2	0.500225
0.233333	0.500225
0.266667	0.500225
0.3	0.500225
0.333333	0.500225
0.366667	0.500225
0.4	0.500225
0.433333	0.500225
0.466667	0.500225
0.5	0.500225
0.533333	0.500225
0.566667	0.500225
0.6	0.500225
0.633333	0.500225
0.666667	0.500225
0.7	0.500225
0.733333	0.500225
0.766667	0.500225
0.8	0.500225
0.833333	0.500225
0.866667	0.500225
0.9	0.500225
0.933333	0.500225
0.966667	0.500225
1	0.500225
0	0.500676
0.0333333	0.500676
0.0666667	0.500676
0.1	0.500676
0.133333	0.500676
0.166667	0.500676
0.2	0.500676
0.233333	0.500676
0.266667	0.500676
0.3	0.500676
0.333333	0.500676
0.366667	0.500676
0.4	0.500676
0.433333	0.500676
0.466667	0.500676
0.5	0.500676
0.533333	0.500676
0.566667	0.500676
0.6	0.500676
0.633333	0.500676
0.666667	0.500676
0.7	0.500676
0.733333	0.500676
0.766667	0.500676
0.8	0.500676
0.833333	0.500676
0.866667	0.500676
0.9	0.500676
0.933333	0.500676
0.966667	0.500676
1	0.500676
0	0.501576
0.0333333	0.501576
0.0666667	0.501576
0.1	0.501576
0.133333	0.501576
0.166667	0.501576
0.2	0.501576
0.233333	0.501576
0.266667	0.501576
0.3	0.501576
0.333333	0.501576
0.366667	0.501576
0.4	0.501576
0.433333	0.501576
0.466667	0.501576
0.5	0.501576
0.533333	0.501576
0.566667	0.501576
0.6	0.501576
0.633333	0.501576
0.666667	0.501576
0.7	0.501576
0.733333	0.501576
0.766667	0.501576
0.8	0.501576
0.833333	0.501576
0.866667	0.501576
0.9	0.501576
0.933333	0.501576
0.966667	0.501576
1	0.501576
0	0.503108
0.0333333	0.503108
0.0666667	0.503108
0.1	0.503108
0.133333	0.503108
0.166667	0.503108
0.2	0.503108
0.233333	0.503108
0.266667	0.503108
0.3	0.503108
0.333333	0.503108
0.366667	0.503108
0.4	0.503108
0.433333	0.503108
0.466667	0.503108
0.5	0.503108
0.533333	0.503108
0.566667	0.503108
0.6	0.503108
0.633333	0.503108
0.666667	0.503108
0.7	0.503108
0.733333	0.503108
0.766667	0.503108
0.8	0.503108
0.833333	0.503108
0.866667	0.503108
0.9	0.503108
0.933333	0.503108
0.966667	0.503108
1	0.503108
0	0.50545
0.0333333	0.50545
0.0666667	0.50545
0.1	0.50545
0.133333	0.50545
0.166667	0.50545
0.2	0.50545
0.233333	0.50545
0.266667	0.50545
0.3	0.50545
0.333333	0.50545
0.366667	0.50545
0.4	0.50545
0.433333	0.50545
0.466667	0.50545
0.5	0.50545
0.533333	0.50545
0.566667	0.50545
0.6	0.50545
0.633333	0.50545
0.666667	0.50545
0.7	0.50545
0.733333	0.50545
0.766667	0.50545
0.8	0.50545
0.833333	0.50545
0.866667	0.50545
0.9	0.50545
0.933333	0.50545
0.966667	0.50545
1	0.50545
0	0.508783
0.0333333	0.508783
0.0666667	0.508783
0.1	0.508783
0.133333	0.508783
0.166667	0.508783
0.2	0.508783
0.233333	0.508783
0.266667	0.508783
0.3	0.508783
0.333333	0.508783
0.366667	0.508783
0.4	0.508783
0.433333	0.508783
0.466667	0.508783
0.5	0.508783
0.533333	0.508783
0.566667	0.508783
0.6	0.508783
0.633333	0.508783
0.666667	0.508783
0.7	0.508783
0.733333	0.508783
0.766667	0.508783
0.8	0.508783
0.833333	0.508783
0.866667	0.508783
0.9	0.508783
0.933333	0.508783
0.966667	0.508783
1	0.508783
0	0.513287
0.0333333	0.513287
0.0666667	0.513287
0.1	0.513287
0.133333	0.513287
0.166667	0.513287
0.2	0.513287
0.233333	0.513287
0.266667	0.513287
0.3	0.513287
0.333333	0.513287
0.366667	0.513287
0.4	0.513287
0.433333	0.513287
0.466667	0.513287
0.5	0.513287
0.533333	0.513287
0.566667	0.513287
0.6	0.513287
0.633333	0.513287
0.666667	0.513287
0.7	0.513287
0.733333	0.513287
0.766667	0.513287
0.8	0.513287
0.833333	0.513287
0.866667	0.513287
0.9	0.513287
0.933333	0.513287
0.966667	0.513287
1	0.513287
0	0.519142
0.0333333	0.519142
0.0666667	0.519142
0.1	0.519142
0.133333	0.519142
0.166667	0.519142
0.2	0.519142
0.233333	0.519142
0.266667	0.519142
0.3	0.519142
0.333333	0.519142
0.366667	0.519142
0.4	0.519142
0.433333	0.519142
0.466667	0.519142
0.5	0.519142
0.533333	0.519142
0.566667	0.519142
0.6	0.519142
0.633333	0.519142
0.666667	0.519142
0.7	0.519142
0.733333	0.519142
0.766667	0.519142
0.8	0.519142
0.833333	0.519142
0.866667	0.519142
0.9	0.519142
0.933333	0.519142
0.966667	0.519142
1	0.519142
0	0.526529
0.0333333	0.526529
0.0666667	0.526529
0.1	0.526529
0.133333	0.526529
0.166667	0.526529
0.2	0.526529
0.233333	0.526529
0.266667	0.526529
0.3	0.526529
0.333333	0.526529
0.366667	0.526529
0.4	0.526529
0.433333	0.526529
0.466667	0.526529
0.5	0.526529
0.533333	0.526529
0.566667	0.526529
0.6	0.526529
0.633333	0.526529
0.666667	0.526529
0.7	0.526529
0.733333	0.526529
0.766667	0.526529
0.8	0.526529
0.833333	0.526529
0.866667	0.526529
0.9	0.526529
0.933333	0.526529
0.966667	0.526529
1	0.526529
0	0.535627
0.0333333	0.535627
0.0666667	0.535627
0.1	0.535627
0.133333	0.535627
0.166667	0.535627
0.2	0.535627
0.233333	0.535627
0.266667	0.535627
0.3	0.535627
0.333333	0.535627
0.366667	0.535627
0.4	0.535627
0.433333	0.535627
0.466667	0.535627
0.5	0.535627
0.533333	0.535627
0.566667	0.535627
0.6	0.535627
0.633333	0.535627
0.666667	0.535627
0.7	0.535627
0.733333	0.535627
0.766667	0.535627
0.8	0.535627
0.833333	0.535627
0.866667	0.535627
0.9	0.535627
0.933333	0.535627
0.966667	0.535627
1	0.535627
0	0.546617
0.0333333	0.546617
0.0666667	0.546617
0.1	0.546617
0.133333	0.546617
0.166667	0.546617
0.2	0.546617
0.233333	0.546617
0.266667	0.546617
0.3	0.546617
0.333333	0.546617
0.366667	0.546617
0.4	0.546617
0.433333	0.546617
0.466667	0.546617
0.5	0.546617
0.533333	0.546617
0.566667	0.546617
0.6	0.546617
0.633333	0.546617
0.666667	0.546617
0.7	0.546617
0.733333	0.546617
0.766667	0.546617
0.8	0.546617
0.833333	0.546617
0.866667	0.546617
0.9	0.546617
0.933333	0.546617
0.966667	0.546617
1	0.546617
0	0.559679
0.0333333	0.559679
0.0666667	0.559679
0.1	0.559679
0.133333	0.559679
0.166667	0.559679
0.2	0.559679
0.233333	0.559679
0.266667	0.559679
0.3	0.559679
0.333333	0.559679
0.366667	0.559679
0.4	0.559679
0.433333	0.559679
0.466667	0.559679
0.5	0.559679
0.533333	0.559679
0.566667	0.559679
0.6	0.559679
0.633333	0.559679
0.666667	0.559679
0.7	0.559679
0.733333	0.559679
0.766667	0.559679
0.8	0.559679
0.833333	0.559679
0.866667	0.559679
0.9	0.559679
0.933333	0.559679
0.966667	0.559679
1	0.559679
0	0.574993
0.0333333	0.574993
0.0666667	0.574993
0.1	0.574993
0.133333	0.574993
0.166667	0.574993
0.2	0.574993
0.233333	0.574993
0.266667	0.574993
0.3	0.574993
0.333333	0.574993
0.366667	0.574993
0.4	0.574993
0.433333	0.574993
0.466667	0.574993
0.5	0.574993
0.533333	0.574993
0.566667	0.574993
0.6	0.574993
0.633333	0.574993
0.666667	0.574993
0.7	0.574993
0.733333	0.574993
0.766667	0.574993
0.8	0.574993
0.833333	0.574993
0.866667	0.574993
0.9	0.574993
0.933333	0.574993
0.966667	0.574993
1	0.574993
0	0.592739
0.0333333	0.592739
0.0666667	0.592739
0.1	0.592739
0.133333	0.592739
0.166667	0.592739
0.2	0.592739
0.233333	0.592739
0.266667	0.592739
0.3	0.592739
0.333333	0.592739
0.366667	0.592739
0.4	0.592739
0.433333	0.592739
0.466667	0.592739
0.5	0.592739
0.533333	0.592739
0.566667	0.592739
0.6	0.592739
0.633333	0.592739
0.666667	0.592739
0.7	0.592739
0.733333	0.592739
0.766667	0.592739
0.8	0.592739
0.833333	0.592739
0.866667	0.592739
0.9	0.592739
0.933333	0.592739
0.966667	0.592739
1	0.592739
0	0.613098
0.0333333	0.613098
0.0666667	0.613098
0.1	0.613098
0.133333	0.613098
0.166667	0.613098
0.2	0.613098
0.233333	0.613098
0.266667	0.613098
0.3	0.613098
0.333333	0.613098
0.366667	0.613098
0.4	0.613098
0.433333	0.613098
0.466667	0.613098
0.5	0.613098
0.533333	0.613098
0.566667	0.613098
0.6	0.613098
0.633333	0.613098
0.666667	0.613098
0.7	0.613098
0.733333	0.613098
0.766667	0.613098
0.8	0.613098
0.833333	0.613098
0.866667	0.613098
0.9	0.613098
0.933333	0.613098
0.966667	0.613098
1	0.613098
0	0.636249
0.0333333	0.636249
0.0666667	0.636249
0.1	0.636249
0.133333	0.636249
0.166667	0.636249
0.2	0.636249
0.233333	0.636249
0.266667	0.636249
0.3	0.636249
0.333333	0.636249
0.366667	0.636249
0.4	0.636249
0.433333	0.636249
0.466667	0.636249
0.5	0.636249
0.533333	0.636249
0.566667	0.636249
0.6	0.636249
0.633333	0.636249
0.666667	0.636249
0.7	0.636249
0.733333	0.636249
0.766667	0.636249
0.8	0.636249
0.833333	0.636249
0.866667	0.636249
0.9	0.636249
0.933333	0.636249
0.966667	0.636249
1	0.636249
0	0.662373
0.0333333	0.662373
0.0666667	0.662373
0.1	0.662373
0.133333	0.662373
0.166667	0.662373
0.2	0.662373
0.233333	0.662373
0.266667	0.662373
0.3	0.662373
0.333333	0.662373
0.366667	0.662373
0.4	0.662373
0.433333	0.662373
0.466667	0.662373
0.5	0.662373
0.533333	0.662373
0.566667	0.662373
0.6	0.662373
0.633333	0.662373
0.666667	0.662373
0.7	0.662373
0.733333	0.662373
0.766667	0.662373
0.8	0.662373
0.833333	0.662373
0.866667	0.662373
0.9	0.662373
0.933333	0.662373
0.966667	0.662373
1	0.662373
0	0.691649
0.0333333	0.691649
0.0666667	0.691649
0.1	0.691649
0.133333	0.691649
0.166667	0.691649
0.2	0.691649
0.233333	0.691649
0.266667	0.691649
0.3	0.691649
0.333333	0.691649
0.366667	0.691649
0.4	0.691649
0.433333	0.691649
0.466667	0.691649
0.5	0.691649
0.533333	0.691649
0.566667	0.691649
0.6	0.691649
0.633333	0.691649
0.666667	0.691649
0.7	0.691649
0.733333	0.691649
0.766667	0.691649
0.8	0.691649
0.833333	0.691649
0.866667	0.691649
0.9	0.691649
0.933333	0.691649
0.966667	0.691649
1	0.691649
0	0.724259
0.0333333	0.724259
0.0666667	0.724259
0.1	0.724259
0.133333	0.724259
0.166667	0.724259
0.2	0.724259
0.233333	0.724259
0.266667	0.724259
0.3	0.724259
0.333333	0.724259
0.366667	0.724259
0.4	0.724259
0.433333	0.724259
0.466667	0.724259
0.5	0.724259
0.533333	0.724259
0.566667	0.724259
0.6	0.724259
0.633333	0.724259
0.666667	0.724259
0.7	0.724259
0.733333	0.724259
0.766667	0.724259
0.8	0.724259
0.833333	0.724259
0.866667	0.724259
0.9	0.724259
0.933333	0.724259
0.966667	0.724259
1	0.724259
0	0.760382
0.0333333	0.760382
0.0666667	0.760382
0.1	0.760382
0.133333	0.760382
0.166667	0.760382
0.2	0.760382
0.233333	0.760382
0.266667	0.760382
0.3	0.760382
0.333333	0.760382
0.366667	0.760382
0.4	0.760382
0.433333	0.760382
0.466667	0.760382
0.5	0.760382
0.533333	0.760382
0.566667	0.760382
0.6	0.760382
0.633333	0.760382
0.666667	0.760382
0.7	0.760382
0.733333	0.760382
0.766667	0.760382
0.8	0.760382
0.833333	0.760382
0.866667	0.760382
0.9	0.760382
0.933333	0.760382
0.966667	0.760382
1	0.760382
0	0.800198
0.0333333	0.800198
0.0666667	0.800198
0.1	0.800198
0.133333	0.800198
0.166667	0.800198
0.2	0.800198
0.233333	0.800198
0.266667	0.800198
0.3	0.800198
0.333333	0.800198
0.366667	0.800198
0.4	0.800198
0.433333	0.800198
0.466667	0.800198
0.5	0.800198
0.533333	0.800198
0.566667	0.800198
0.6	0.800198
0.633333	0.800198
0.666667	0.800198
0.7	0.800198
0.733333	0.800198
0.766667	0.800198
0.8	0.800198
0.833333	0.800198
0.866667	0.800198
0.9	0.800198
0.933333	0.800198
0.966667	0.800198
1	0.800198
0	0.843888
0.0333333	0.843888
0.0666667	0.843888
0.1	0.843888
0.133333	0.843888
0.166667	0.843888
0.2	0.843888
0.233333	0.843888
0.266667	0.843888
0.3	0.843888
0.333333	0.843888
0.366667	0.843888
0.4	0.843888
0.433333	0.843888
0.466667	0.843888
0.5	0.843888
0.533333	0.843888
0.566667	0.843888
0.6	0.843888
0.633333	0.843888
0.666667	0.843888
0.7	0.843888
0.733333	0.843888
0.766667	0.843888
0.8	0.843888
0.833333	0.843888
0.866667	0.843888
0.9	0.843888
0.933333	0.843888
0.966667	0.843888
1	0.843888
0	0.891631
0.0333333	0.891631
0.0666667	0.891631
0.1	0.891631
0.133333	0.891631
0.166667	0.891631
0.2	0.891631
0.233333	0.891631
0.266667	0.891631
0.3	0.891631
0.333333	0.891631
0.366667	0.891631
0.4	0.891631
0.433333	0.891631
0.466667	0.891631
0.5	0.891631
0.533333	0.891631
0.566667	0.891631
0.6	0.891631
0.633333	0.891631
0.666667	0.891631
0.7	0.891631
0.733333	0.891631
0.766667	0.891631
0.8	0.891631
0.833333	0.891631
0.866667	0.891631
0.9	0.891631
0.933333	0.891631
0.966667	0.891631
1	0.891631
0	0.943609
0.0333333	0.943609
0.0666667	0.943609
0.1	0.943609
0.133333	0.943609
0.166667	0.943609
0.2	0.943609
0.233333	0.943609
0.266667	0.943609
0.3	0.943609
0.333333	0.943609
0.366667	0.943609
0.4	0.943609
0.433333	0.943609
0.466667	0.943609
0.5	0.943609
0.533333	0.943609
0.566667	0.943609
0.6	0.943609
0.633333	0.943609
0.666667	0.943609
0.7	0.943609
0.733333	0.943609
0.766667	0.943609
0.8	0.943609
0.833333	0.943609
0.866667	0.943609
0.9	0.943609
0.933333	0.943609
0.966667	0.943609
1	0.943609
