VARIABLES = X Y
ZONE I = 31, J = 51, F = POINT
0	0
0.0333333	0
0.0666667	0
0.1	0
0.133333	0
0.166667	0
0.2	0
0.233333	0
0.266667	0
0.3	0
0.333333	0
0.366667	0
0.4	0
0.433333	0
0.466667	0
0.5	0
0.533333	0
0.566667	0
0.6	0
0.633333	0
0.666667	0
0.7	0
0.733333	0
0.766667	0
0.8	0
0.833333	0
0.866667	0
0.9	0
0.933333	0
0.966667	0
1	0
0	7.89309e-05
0.0333333	7.89309e-05
0.0666667	7.89309e-05
0.1	7.89309e-05
0.133333	7.89309e-05
0.166667	7.89309e-05
0.2	7.89309e-05
0.233333	7.89309e-05
0.266667	7.89309e-05
0.3	7.89309e-05
0.333333	7.89309e-05
0.366667	7.89309e-05
0.4	7.89309e-05
0.433333	7.89309e-05
0.466667	7.89309e-05
0.5	7.89309e-05
0.533333	7.89309e-05
0.566667	7.89309e-05
0.6	7.89309e-05
0.633333	7.89309e-05
0.666667	7.89309e-05
0.7	7.89309e-05
0.733333	7.89309e-05
0.766667	7.89309e-05
0.8	7.89309e-05
0.833333	7.89309e-05
0.866667	7.89309e-05
0.9	7.89309e-05
0.933333	7.89309e-05
0.966667	7.89309e-05
1	7.89309e-05
0	0.000473274
0.0333333	0.000473274
0.0666667	0.000473274
0.1	0.000473274
0.133333	0.000473274
0.166667	0.000473274
0.2	0.000473274
0.233333	0.000473274
0.266667	0.000473274
0.3	0.000473274
0.333333	0.000473274
0.366667	0.000473274
0.4	0.000473274
0.433333	0.000473274
0.466667	0.000473274
0.5	0.000473274
0.533333	0.000473274
0.566667	0.000473274
0.6	0.000473274
0.633333	0.000473274
0.666667	0.000473274
0.7	0.000473274
0.733333	0.000473274
0.766667	0.000473274
0.8	0.000473274
0.833333	0.000473274
0.866667	0.000473274
0.9	0.000473274
0.933333	0.000473274
0.966667	0.000473274
1	0.000473274
0	0.00157613
0.0333333	0.00157613
0.0666667	0.00157613
0.1	0.00157613
0.133333	0.00157613
0.166667	0.00157613
0.2	0.00157613
0.233333	0.00157613
0.266667	0.00157613
0.3	0.00157613
0.333333	0.00157613
0.366667	0.00157613
0.4	0.00157613
0.433333	0.00157613
0.466667	0.00157613
0.5	0.00157613
0.533333	0.00157613
0.566667	0.00157613
0.6	0.00157613
0.633333	0.00157613
0.666667	0.00157613
0.7	0.00157613
0.733333	0.00157613
0.766667	0.00157613
0.8	0.00157613
0.833333	0.00157613
0.866667	0.00157613
0.9	0.00157613
0.933333	0.00157613
0.966667	0.00157613
1	0.00157613
0	0.00393565
0.0333333	0.00393565
0.0666667	0.00393565
0.1	0.00393565
0.133333	0.00393565
0.166667	0.00393565
0.2	0.00393565
0.233333	0.00393565
0.266667	0.00393565
0.3	0.00393565
0.333333	0.00393565
0.366667	0.00393565
0.4	0.00393565
0.433333	0.00393565
0.466667	0.00393565
0.5	0.00393565
0.533333	0.00393565
0.566667	0.00393565
0.6	0.00393565
0.633333	0.00393565
0.666667	0.00393565
0.7	0.00393565
0.733333	0.00393565
0.766667	0.00393565
0.8	0.00393565
0.833333	0.00393565
0.866667	0.00393565
0.9	0.00393565
0.933333	0.00393565
0.966667	0.00393565
1	0.00393565
0	0.00825292
0.0333333	0.00825292
0.0666667	0.00825292
0.1	0.00825292
0.133333	0.00825292
0.166667	0.00825292
0.2	0.00825292
0.233333	0.00825292
0.266667	0.00825292
0.3	0.00825292
0.333333	0.00825292
0.366667	0.00825292
0.4	0.00825292
0.433333	0.00825292
0.466667	0.00825292
0.5	0.00825292
0.533333	0.00825292
0.566667	0.00825292
0.6	0.00825292
0.633333	0.00825292
0.666667	0.00825292
0.7	0.00825292
0.733333	0.00825292
0.766667	0.00825292
0.8	0.00825292
0.833333	0.00825292
0.866667	0.00825292
0.9	0.00825292
0.933333	0.00825292
0.966667	0.00825292
1	0.00825292
0	0.0153791
0.0333333	0.0153791
0.0666667	0.0153791
0.1	0.0153791
0.133333	0.0153791
0.166667	0.0153791
0.2	0.0153791
0.233333	0.0153791
0.266667	0.0153791
0.3	0.0153791
0.333333	0.0153791
0.366667	0.0153791
0.4	0.0153791
0.433333	0.0153791
0.466667	0.0153791
0.5	0.0153791
0.533333	0.0153791
0.566667	0.0153791
0.6	0.0153791
0.633333	0.0153791
0.666667	0.0153791
0.7	0.0153791
0.733333	0.0153791
0.766667	0.0153791
0.8	0.0153791
0.833333	0.0153791
0.866667	0.0153791
0.9	0.0153791
0.933333	0.0153791
0.966667	0.0153791
1	0.0153791
0	0.0263122
0.0333333	0.0263122
0.0666667	0.0263122
0.1	0.0263122
0.133333	0.0263122
0.166667	0.0263122
0.2	0.0263122
0.233333	0.0263122
0.266667	0.0263122
0.3	0.0263122
0.333333	0.0263122
0.366667	0.0263122
0.4	0.0263122
0.433333	0.0263122
0.466667	0.0263122
0.5	0.0263122
0.533333	0.0263122
0.566667	0.0263122
0.6	0.0263122
0.633333	0.0263122
0.666667	0.0263122
0.7	0.0263122
0.733333	0.0263122
0.766667	0.0263122
0.8	0.0263122
0.833333	0.0263122
0.866667	0.0263122
0.9	0.0263122
0.933333	0.0263122
0.966667	0.0263122
1	0.0263122
0	0.0421931
0.0333333	0.0421931
0.0666667	0.0421931
0.1	0.0421931
0.133333	0.0421931
0.166667	0.0421931
0.2	0.0421931
0.233333	0.0421931
0.266667	0.0421931
0.3	0.0421931
0.333333	0.0421931
0.366667	0.0421931
0.4	0.0421931
0.433333	0.0421931
0.466667	0.0421931
0.5	0.0421931
0.533333	0.0421931
0.566667	0.0421931
0.6	0.0421931
0.633333	0.0421931
0.666667	0.0421931
0.7	0.0421931
0.733333	0.0421931
0.766667	0.0421931
0.8	0.0421931
0.833333	0.0421931
0.866667	0.0421931
0.9	0.0421931
0.933333	0.0421931
0.966667	0.0421931
1	0.0421931
0	0.0643008
0.0333333	0.0643008
0.0666667	0.0643008
0.1	0.0643008
0.133333	0.0643008
0.166667	0.0643008
0.2	0.0643008
0.233333	0.0643008
0.266667	0.0643008
0.3	0.0643008
0.333333	0.0643008
0.366667	0.0643008
0.4	0.0643008
0.433333	0.0643008
0.466667	0.0643008
0.5	0.0643008
0.533333	0.0643008
0.566667	0.0643008
0.6	0.0643008
0.633333	0.0643008
0.666667	0.0643008
0.7	0.0643008
0.733333	0.0643008
0.766667	0.0643008
0.8	0.0643008
0.833333	0.0643008
0.866667	0.0643008
0.9	0.0643008
0.933333	0.0643008
0.966667	0.0643008
1	0.0643008
0	0.0940479
0.0333333	0.0940479
0.0666667	0.0940479
0.1	0.0940479
0.133333	0.0940479
0.166667	0.0940479
0.2	0.0940479
0.233333	0.0940479
0.266667	0.0940479
0.3	0.0940479
0.333333	0.0940479
0.366667	0.0940479
0.4	0.0940479
0.433333	0.0940479
0.466667	0.0940479
0.5	0.0940479
0.533333	0.0940479
0.566667	0.0940479
0.6	0.0940479
0.633333	0.0940479
0.666667	0.0940479
0.7	0.0940479
0.733333	0.0940479
0.766667	0.0940479
0.8	0.0940479
0.833333	0.0940479
0.866667	0.0940479
0.9	0.0940479
0.933333	0.0940479
0.966667	0.0940479
1	0.0940479
0	0.132974
0.0333333	0.132974
0.0666667	0.132974
0.1	0.132974
0.133333	0.132974
0.166667	0.132974
0.2	0.132974
0.233333	0.132974
0.266667	0.132974
0.3	0.132974
0.333333	0.132974
0.366667	0.132974
0.4	0.132974
0.433333	0.132974
0.466667	0.132974
0.5	0.132974
0.533333	0.132974
0.566667	0.132974
0.6	0.132974
0.633333	0.132974
0.666667	0.132974
0.7	0.132974
0.733333	0.132974
0.766667	0.132974
0.8	0.132974
0.833333	0.132974
0.866667	0.132974
0.9	0.132974
0.933333	0.132974
0.966667	0.132974
1	0.132974
0	0.182742
0.0333333	0.182742
0.0666667	0.182742
0.1	0.182742
0.133333	0.182742
0.166667	0.182742
0.2	0.182742
0.233333	0.182742
0.266667	0.182742
0.3	0.182742
0.333333	0.182742
0.366667	0.182742
0.4	0.182742
0.433333	0.182742
0.466667	0.182742
0.5	0.182742
0.533333	0.182742
0.566667	0.182742
0.6	0.182742
0.633333	0.182742
0.666667	0.182742
0.7	0.182742
0.733333	0.182742
0.766667	0.182742
0.8	0.182742
0.833333	0.182742
0.866667	0.182742
0.9	0.182742
0.933333	0.182742
0.966667	0.182742
1	0.182742
0	0.245128
0.0333333	0.245128
0.0666667	0.245128
0.1	0.245128
0.133333	0.245128
0.166667	0.245128
0.2	0.245128
0.233333	0.245128
0.266667	0.245128
0.3	0.245128
0.333333	0.245128
0.366667	0.245128
0.4	0.245128
0.433333	0.245128
0.466667	0.245128
0.5	0.245128
0.533333	0.245128
0.566667	0.245128
0.6	0.245128
0.633333	0.245128
0.666667	0.245128
0.7	0.245128
0.733333	0.245128
0.766667	0.245128
0.8	0.245128
0.833333	0.245128
0.866667	0.245128
0.9	0.245128
0.933333	0.245128
0.966667	0.245128
1	0.245128
0	0.322017
0.0333333	0.322017
0.0666667	0.322017
0.1	0.322017
0.133333	0.322017
0.166667	0.322017
0.2	0.322017
0.233333	0.322017
0.266667	0.322017
0.3	0.322017
0.333333	0.322017
0.366667	0.322017
0.4	0.322017
0.433333	0.322017
0.466667	0.322017
0.5	0.322017
0.533333	0.322017
0.566667	0.322017
0.6	0.322017
0.633333	0.322017
0.666667	0.322017
0.7	0.322017
0.733333	0.322017
0.766667	0.322017
0.8	0.322017
0.833333	0.322017
0.866667	0.322017
0.9	0.322017
0.933333	0.322017
0.966667	0.322017
1	0.322017
0	0.415395
0.0333333	0.415395
0.0666667	0.415395
0.1	0.415395
0.133333	0.415395
0.166667	0.415395
0.2	0.415395
0.233333	0.415395
0.266667	0.415395
0.3	0.415395
0.333333	0.415395
0.366667	0.415395
0.4	0.415395
0.433333	0.415395
0.466667	0.415395
0.5	0.415395
0.533333	0.415395
0.566667	0.415395
0.6	0.415395
0.633333	0.415395
0.666667	0.415395
0.7	0.415395
0.733333	0.415395
0.766667	0.415395
0.8	0.415395
0.833333	0.415395
0.866667	0.415395
0.9	0.415395
0.933333	0.415395
0.966667	0.415395
1	0.415395
0	0.527339
0.0333333	0.527339
0.0666667	0.527339
0.1	0.527339
0.133333	0.527339
0.166667	0.527339
0.2	0.527339
0.233333	0.527339
0.266667	0.527339
0.3	0.527339
0.333333	0.527339
0.366667	0.527339
0.4	0.527339
0.433333	0.527339
0.466667	0.527339
0.5	0.527339
0.533333	0.527339
0.566667	0.527339
0.6	0.527339
0.633333	0.527339
0.666667	0.527339
0.7	0.527339
0.733333	0.527339
0.766667	0.527339
0.8	0.527339
0.833333	0.527339
0.866667	0.527339
0.9	0.527339
0.933333	0.527339
0.966667	0.527339
1	0.527339
0	0.660013
0.0333333	0.660013
0.0666667	0.660013
0.1	0.660013
0.133333	0.660013
0.166667	0.660013
0.2	0.660013
0.233333	0.660013
0.266667	0.660013
0.3	0.660013
0.333333	0.660013
0.366667	0.660013
0.4	0.660013
0.433333	0.660013
0.466667	0.660013
0.5	0.660013
0.533333	0.660013
0.566667	0.660013
0.6	0.660013
0.633333	0.660013
0.666667	0.660013
0.7	0.660013
0.733333	0.660013
0.766667	0.660013
0.8	0.660013
0.833333	0.660013
0.866667	0.660013
0.9	0.660013
0.933333	0.660013
0.966667	0.660013
1	0.660013
0	0.815657
0.0333333	0.815657
0.0666667	0.815657
0.1	0.815657
0.133333	0.815657
0.166667	0.815657
0.2	0.815657
0.233333	0.815657
0.266667	0.815657
0.3	0.815657
0.333333	0.815657
0.366667	0.815657
0.4	0.815657
0.433333	0.815657
0.466667	0.815657
0.5	0.815657
0.533333	0.815657
0.566667	0.815657
0.6	0.815657
0.633333	0.815657
0.666667	0.815657
0.7	0.815657
0.733333	0.815657
0.766667	0.815657
0.8	0.815657
0.833333	0.815657
0.866667	0.815657
0.9	0.815657
0.933333	0.815657
0.966667	0.815657
1	0.815657
0	0.996575
0.0333333	0.996575
0.0666667	0.996575
0.1	0.996575
0.133333	0.996575
0.166667	0.996575
0.2	0.996575
0.233333	0.996575
0.266667	0.996575
0.3	0.996575
0.333333	0.996575
0.366667	0.996575
0.4	0.996575
0.433333	0.996575
0.466667	0.996575
0.5	0.996575
0.533333	0.996575
0.566667	0.996575
0.6	0.996575
0.633333	0.996575
0.666667	0.996575
0.7	0.996575
0.733333	0.996575
0.766667	0.996575
0.8	0.996575
0.833333	0.996575
0.866667	0.996575
0.9	0.996575
0.933333	0.996575
0.966667	0.996575
1	0.996575
0	1.20513
0.0333333	1.20513
0.0666667	1.20513
0.1	1.20513
0.133333	1.20513
0.166667	1.20513
0.2	1.20513
0.233333	1.20513
0.266667	1.20513
0.3	1.20513
0.333333	1.20513
0.366667	1.20513
0.4	1.20513
0.433333	1.20513
0.466667	1.20513
0.5	1.20513
0.533333	1.20513
0.566667	1.20513
0.6	1.20513
0.633333	1.20513
0.666667	1.20513
0.7	1.20513
0.733333	1.20513
0.766667	1.20513
0.8	1.20513
0.833333	1.20513
0.866667	1.20513
0.9	1.20513
0.933333	1.20513
0.966667	1.20513
1	1.20513
0	1.44374
0.0333333	1.44374
0.0666667	1.44374
0.1	1.44374
0.133333	1.44374
0.166667	1.44374
0.2	1.44374
0.233333	1.44374
0.266667	1.44374
0.3	1.44374
0.333333	1.44374
0.366667	1.44374
0.4	1.44374
0.433333	1.44374
0.466667	1.44374
0.5	1.44374
0.533333	1.44374
0.566667	1.44374
0.6	1.44374
0.633333	1.44374
0.666667	1.44374
0.7	1.44374
0.733333	1.44374
0.766667	1.44374
0.8	1.44374
0.833333	1.44374
0.866667	1.44374
0.9	1.44374
0.933333	1.44374
0.966667	1.44374
1	1.44374
0	1.71486
0.0333333	1.71486
0.0666667	1.71486
0.1	1.71486
0.133333	1.71486
0.166667	1.71486
0.2	1.71486
0.233333	1.71486
0.266667	1.71486
0.3	1.71486
0.333333	1.71486
0.366667	1.71486
0.4	1.71486
0.433333	1.71486
0.466667	1.71486
0.5	1.71486
0.533333	1.71486
0.566667	1.71486
0.6	1.71486
0.633333	1.71486
0.666667	1.71486
0.7	1.71486
0.733333	1.71486
0.766667	1.71486
0.8	1.71486
0.833333	1.71486
0.866667	1.71486
0.9	1.71486
0.933333	1.71486
0.966667	1.71486
1	1.71486
0	2.02096
0.0333333	2.02096
0.0666667	2.02096
0.1	2.02096
0.133333	2.02096
0.166667	2.02096
0.2	2.02096
0.233333	2.02096
0.266667	2.02096
0.3	2.02096
0.333333	2.02096
0.366667	2.02096
0.4	2.02096
0.433333	2.02096
0.466667	2.02096
0.5	2.02096
0.533333	2.02096
0.566667	2.02096
0.6	2.02096
0.633333	2.02096
0.666667	2.02096
0.7	2.02096
0.733333	2.02096
0.766667	2.02096
0.8	2.02096
0.833333	2.02096
0.866667	2.02096
0.9	2.02096
0.933333	2.02096
0.966667	2.02096
1	2.02096
0	2.36455
0.0333333	2.36455
0.0666667	2.36455
0.1	2.36455
0.133333	2.36455
0.166667	2.36455
0.2	2.36455
0.233333	2.36455
0.266667	2.36455
0.3	2.36455
0.333333	2.36455
0.366667	2.36455
0.4	2.36455
0.433333	2.36455
0.466667	2.36455
0.5	2.36455
0.533333	2.36455
0.566667	2.36455
0.6	2.36455
0.633333	2.36455
0.666667	2.36455
0.7	2.36455
0.733333	2.36455
0.766667	2.36455
0.8	2.36455
0.833333	2.36455
0.866667	2.36455
0.9	2.36455
0.933333	2.36455
0.966667	2.36455
1	2.36455
0	2.74814
0.0333333	2.74814
0.0666667	2.74814
0.1	2.74814
0.133333	2.74814
0.166667	2.74814
0.2	2.74814
0.233333	2.74814
0.266667	2.74814
0.3	2.74814
0.333333	2.74814
0.366667	2.74814
0.4	2.74814
0.433333	2.74814
0.466667	2.74814
0.5	2.74814
0.533333	2.74814
0.566667	2.74814
0.6	2.74814
0.633333	2.74814
0.666667	2.74814
0.7	2.74814
0.733333	2.74814
0.766667	2.74814
0.8	2.74814
0.833333	2.74814
0.866667	2.74814
0.9	2.74814
0.933333	2.74814
0.966667	2.74814
1	2.74814
0	3.17424
0.0333333	3.17424
0.0666667	3.17424
0.1	3.17424
0.133333	3.17424
0.166667	3.17424
0.2	3.17424
0.233333	3.17424
0.266667	3.17424
0.3	3.17424
0.333333	3.17424
0.366667	3.17424
0.4	3.17424
0.433333	3.17424
0.466667	3.17424
0.5	3.17424
0.533333	3.17424
0.566667	3.17424
0.6	3.17424
0.633333	3.17424
0.666667	3.17424
0.7	3.17424
0.733333	3.17424
0.766667	3.17424
0.8	3.17424
0.833333	3.17424
0.866667	3.17424
0.9	3.17424
0.933333	3.17424
0.966667	3.17424
1	3.17424
0	3.64535
0.0333333	3.64535
0.0666667	3.64535
0.1	3.64535
0.133333	3.64535
0.166667	3.64535
0.2	3.64535
0.233333	3.64535
0.266667	3.64535
0.3	3.64535
0.333333	3.64535
0.366667	3.64535
0.4	3.64535
0.433333	3.64535
0.466667	3.64535
0.5	3.64535
0.533333	3.64535
0.566667	3.64535
0.6	3.64535
0.633333	3.64535
0.666667	3.64535
0.7	3.64535
0.733333	3.64535
0.766667	3.64535
0.8	3.64535
0.833333	3.64535
0.866667	3.64535
0.9	3.64535
0.933333	3.64535
0.966667	3.64535
1	3.64535
0	4.16396
0.0333333	4.16396
0.0666667	4.16396
0.1	4.16396
0.133333	4.16396
0.166667	4.16396
0.2	4.16396
0.233333	4.16396
0.266667	4.16396
0.3	4.16396
0.333333	4.16396
0.366667	4.16396
0.4	4.16396
0.433333	4.16396
0.466667	4.16396
0.5	4.16396
0.533333	4.16396
0.566667	4.16396
0.6	4.16396
0.633333	4.16396
0.666667	4.16396
0.7	4.16396
0.733333	4.16396
0.766667	4.16396
0.8	4.16396
0.833333	4.16396
0.866667	4.16396
0.9	4.16396
0.933333	4.16396
0.966667	4.16396
1	4.16396
0	4.73252
0.0333333	4.73252
0.0666667	4.73252
0.1	4.73252
0.133333	4.73252
0.166667	4.73252
0.2	4.73252
0.233333	4.73252
0.266667	4.73252
0.3	4.73252
0.333333	4.73252
0.366667	4.73252
0.4	4.73252
0.433333	4.73252
0.466667	4.73252
0.5	4.73252
0.533333	4.73252
0.566667	4.73252
0.6	4.73252
0.633333	4.73252
0.666667	4.73252
0.7	4.73252
0.733333	4.73252
0.766667	4.73252
0.8	4.73252
0.833333	4.73252
0.866667	4.73252
0.9	4.73252
0.933333	4.73252
0.966667	4.73252
1	4.73252
0	5.35344
0.0333333	5.35344
0.0666667	5.35344
0.1	5.35344
0.133333	5.35344
0.166667	5.35344
0.2	5.35344
0.233333	5.35344
0.266667	5.35344
0.3	5.35344
0.333333	5.35344
0.366667	5.35344
0.4	5.35344
0.433333	5.35344
0.466667	5.35344
0.5	5.35344
0.533333	5.35344
0.566667	5.35344
0.6	5.35344
0.633333	5.35344
0.666667	5.35344
0.7	5.35344
0.733333	5.35344
0.766667	5.35344
0.8	5.35344
0.833333	5.35344
0.866667	5.35344
0.9	5.35344
0.933333	5.35344
0.966667	5.35344
1	5.35344
0	6.02908
0.0333333	6.02908
0.0666667	6.02908
0.1	6.02908
0.133333	6.02908
0.166667	6.02908
0.2	6.02908
0.233333	6.02908
0.266667	6.02908
0.3	6.02908
0.333333	6.02908
0.366667	6.02908
0.4	6.02908
0.433333	6.02908
0.466667	6.02908
0.5	6.02908
0.533333	6.02908
0.566667	6.02908
0.6	6.02908
0.633333	6.02908
0.666667	6.02908
0.7	6.02908
0.733333	6.02908
0.766667	6.02908
0.8	6.02908
0.833333	6.02908
0.866667	6.02908
0.9	6.02908
0.933333	6.02908
0.966667	6.02908
1	6.02908
0	6.76176
0.0333333	6.76176
0.0666667	6.76176
0.1	6.76176
0.133333	6.76176
0.166667	6.76176
0.2	6.76176
0.233333	6.76176
0.266667	6.76176
0.3	6.76176
0.333333	6.76176
0.366667	6.76176
0.4	6.76176
0.433333	6.76176
0.466667	6.76176
0.5	6.76176
0.533333	6.76176
0.566667	6.76176
0.6	6.76176
0.633333	6.76176
0.666667	6.76176
0.7	6.76176
0.733333	6.76176
0.766667	6.76176
0.8	6.76176
0.833333	6.76176
0.866667	6.76176
0.9	6.76176
0.933333	6.76176
0.966667	6.76176
1	6.76176
0	7.5537
0.0333333	7.5537
0.0666667	7.5537
0.1	7.5537
0.133333	7.5537
0.166667	7.5537
0.2	7.5537
0.233333	7.5537
0.266667	7.5537
0.3	7.5537
0.333333	7.5537
0.366667	7.5537
0.4	7.5537
0.433333	7.5537
0.466667	7.5537
0.5	7.5537
0.533333	7.5537
0.566667	7.5537
0.6	7.5537
0.633333	7.5537
0.666667	7.5537
0.7	7.5537
0.733333	7.5537
0.766667	7.5537
0.8	7.5537
0.833333	7.5537
0.866667	7.5537
0.9	7.5537
0.933333	7.5537
0.966667	7.5537
1	7.5537
0	8.40708
0.0333333	8.40708
0.0666667	8.40708
0.1	8.40708
0.133333	8.40708
0.166667	8.40708
0.2	8.40708
0.233333	8.40708
0.266667	8.40708
0.3	8.40708
0.333333	8.40708
0.366667	8.40708
0.4	8.40708
0.433333	8.40708
0.466667	8.40708
0.5	8.40708
0.533333	8.40708
0.566667	8.40708
0.6	8.40708
0.633333	8.40708
0.666667	8.40708
0.7	8.40708
0.733333	8.40708
0.766667	8.40708
0.8	8.40708
0.833333	8.40708
0.866667	8.40708
0.9	8.40708
0.933333	8.40708
0.966667	8.40708
1	8.40708
0	9.32397
0.0333333	9.32397
0.0666667	9.32397
0.1	9.32397
0.133333	9.32397
0.166667	9.32397
0.2	9.32397
0.233333	9.32397
0.266667	9.32397
0.3	9.32397
0.333333	9.32397
0.366667	9.32397
0.4	9.32397
0.433333	9.32397
0.466667	9.32397
0.5	9.32397
0.533333	9.32397
0.566667	9.32397
0.6	9.32397
0.633333	9.32397
0.666667	9.32397
0.7	9.32397
0.733333	9.32397
0.766667	9.32397
0.8	9.32397
0.833333	9.32397
0.866667	9.32397
0.9	9.32397
0.933333	9.32397
0.966667	9.32397
1	9.32397
0	10.3064
0.0333333	10.3064
0.0666667	10.3064
0.1	10.3064
0.133333	10.3064
0.166667	10.3064
0.2	10.3064
0.233333	10.3064
0.266667	10.3064
0.3	10.3064
0.333333	10.3064
0.366667	10.3064
0.4	10.3064
0.433333	10.3064
0.466667	10.3064
0.5	10.3064
0.533333	10.3064
0.566667	10.3064
0.6	10.3064
0.633333	10.3064
0.666667	10.3064
0.7	10.3064
0.733333	10.3064
0.766667	10.3064
0.8	10.3064
0.833333	10.3064
0.866667	10.3064
0.9	10.3064
0.933333	10.3064
0.966667	10.3064
1	10.3064
0	11.3561
0.0333333	11.3561
0.0666667	11.3561
0.1	11.3561
0.133333	11.3561
0.166667	11.3561
0.2	11.3561
0.233333	11.3561
0.266667	11.3561
0.3	11.3561
0.333333	11.3561
0.366667	11.3561
0.4	11.3561
0.433333	11.3561
0.466667	11.3561
0.5	11.3561
0.533333	11.3561
0.566667	11.3561
0.6	11.3561
0.633333	11.3561
0.666667	11.3561
0.7	11.3561
0.733333	11.3561
0.766667	11.3561
0.8	11.3561
0.833333	11.3561
0.866667	11.3561
0.9	11.3561
0.933333	11.3561
0.966667	11.3561
1	11.3561
0	12.475
0.0333333	12.475
0.0666667	12.475
0.1	12.475
0.133333	12.475
0.166667	12.475
0.2	12.475
0.233333	12.475
0.266667	12.475
0.3	12.475
0.333333	12.475
0.366667	12.475
0.4	12.475
0.433333	12.475
0.466667	12.475
0.5	12.475
0.533333	12.475
0.566667	12.475
0.6	12.475
0.633333	12.475
0.666667	12.475
0.7	12.475
0.733333	12.475
0.766667	12.475
0.8	12.475
0.833333	12.475
0.866667	12.475
0.9	12.475
0.933333	12.475
0.966667	12.475
1	12.475
0	13.6648
0.0333333	13.6648
0.0666667	13.6648
0.1	13.6648
0.133333	13.6648
0.166667	13.6648
0.2	13.6648
0.233333	13.6648
0.266667	13.6648
0.3	13.6648
0.333333	13.6648
0.366667	13.6648
0.4	13.6648
0.433333	13.6648
0.466667	13.6648
0.5	13.6648
0.533333	13.6648
0.566667	13.6648
0.6	13.6648
0.633333	13.6648
0.666667	13.6648
0.7	13.6648
0.733333	13.6648
0.766667	13.6648
0.8	13.6648
0.833333	13.6648
0.866667	13.6648
0.9	13.6648
0.933333	13.6648
0.966667	13.6648
1	13.6648
0	14.9269
0.0333333	14.9269
0.0666667	14.9269
0.1	14.9269
0.133333	14.9269
0.166667	14.9269
0.2	14.9269
0.233333	14.9269
0.266667	14.9269
0.3	14.9269
0.333333	14.9269
0.366667	14.9269
0.4	14.9269
0.433333	14.9269
0.466667	14.9269
0.5	14.9269
0.533333	14.9269
0.566667	14.9269
0.6	14.9269
0.633333	14.9269
0.666667	14.9269
0.7	14.9269
0.733333	14.9269
0.766667	14.9269
0.8	14.9269
0.833333	14.9269
0.866667	14.9269
0.9	14.9269
0.933333	14.9269
0.966667	14.9269
1	14.9269
0	16.2628
0.0333333	16.2628
0.0666667	16.2628
0.1	16.2628
0.133333	16.2628
0.166667	16.2628
0.2	16.2628
0.233333	16.2628
0.266667	16.2628
0.3	16.2628
0.333333	16.2628
0.366667	16.2628
0.4	16.2628
0.433333	16.2628
0.466667	16.2628
0.5	16.2628
0.533333	16.2628
0.566667	16.2628
0.6	16.2628
0.633333	16.2628
0.666667	16.2628
0.7	16.2628
0.733333	16.2628
0.766667	16.2628
0.8	16.2628
0.833333	16.2628
0.866667	16.2628
0.9	16.2628
0.933333	16.2628
0.966667	16.2628
1	16.2628
0	17.6737
0.0333333	17.6737
0.0666667	17.6737
0.1	17.6737
0.133333	17.6737
0.166667	17.6737
0.2	17.6737
0.233333	17.6737
0.266667	17.6737
0.3	17.6737
0.333333	17.6737
0.366667	17.6737
0.4	17.6737
0.433333	17.6737
0.466667	17.6737
0.5	17.6737
0.533333	17.6737
0.566667	17.6737
0.6	17.6737
0.633333	17.6737
0.666667	17.6737
0.7	17.6737
0.733333	17.6737
0.766667	17.6737
0.8	17.6737
0.833333	17.6737
0.866667	17.6737
0.9	17.6737
0.933333	17.6737
0.966667	17.6737
1	17.6737
0	19.1608
0.0333333	19.1608
0.0666667	19.1608
0.1	19.1608
0.133333	19.1608
0.166667	19.1608
0.2	19.1608
0.233333	19.1608
0.266667	19.1608
0.3	19.1608
0.333333	19.1608
0.366667	19.1608
0.4	19.1608
0.433333	19.1608
0.466667	19.1608
0.5	19.1608
0.533333	19.1608
0.566667	19.1608
0.6	19.1608
0.633333	19.1608
0.666667	19.1608
0.7	19.1608
0.733333	19.1608
0.766667	19.1608
0.8	19.1608
0.833333	19.1608
0.866667	19.1608
0.9	19.1608
0.933333	19.1608
0.966667	19.1608
1	19.1608
0	20.7252
0.0333333	20.7252
0.0666667	20.7252
0.1	20.7252
0.133333	20.7252
0.166667	20.7252
0.2	20.7252
0.233333	20.7252
0.266667	20.7252
0.3	20.7252
0.333333	20.7252
0.366667	20.7252
0.4	20.7252
0.433333	20.7252
0.466667	20.7252
0.5	20.7252
0.533333	20.7252
0.566667	20.7252
0.6	20.7252
0.633333	20.7252
0.666667	20.7252
0.7	20.7252
0.733333	20.7252
0.766667	20.7252
0.8	20.7252
0.833333	20.7252
0.866667	20.7252
0.9	20.7252
0.933333	20.7252
0.966667	20.7252
1	20.7252
0	22.3675
0.0333333	22.3675
0.0666667	22.3675
0.1	22.3675
0.133333	22.3675
0.166667	22.3675
0.2	22.3675
0.233333	22.3675
0.266667	22.3675
0.3	22.3675
0.333333	22.3675
0.366667	22.3675
0.4	22.3675
0.433333	22.3675
0.466667	22.3675
0.5	22.3675
0.533333	22.3675
0.566667	22.3675
0.6	22.3675
0.633333	22.3675
0.666667	22.3675
0.7	22.3675
0.733333	22.3675
0.766667	22.3675
0.8	22.3675
0.833333	22.3675
0.866667	22.3675
0.9	22.3675
0.933333	22.3675
0.966667	22.3675
1	22.3675
0	24.0886
0.0333333	24.0886
0.0666667	24.0886
0.1	24.0886
0.133333	24.0886
0.166667	24.0886
0.2	24.0886
0.233333	24.0886
0.266667	24.0886
0.3	24.0886
0.333333	24.0886
0.366667	24.0886
0.4	24.0886
0.433333	24.0886
0.466667	24.0886
0.5	24.0886
0.533333	24.0886
0.566667	24.0886
0.6	24.0886
0.633333	24.0886
0.666667	24.0886
0.7	24.0886
0.733333	24.0886
0.766667	24.0886
0.8	24.0886
0.833333	24.0886
0.866667	24.0886
0.9	24.0886
0.933333	24.0886
0.966667	24.0886
1	24.0886
0	25.889
0.0333333	25.889
0.0666667	25.889
0.1	25.889
0.133333	25.889
0.166667	25.889
0.2	25.889
0.233333	25.889
0.266667	25.889
0.3	25.889
0.333333	25.889
0.366667	25.889
0.4	25.889
0.433333	25.889
0.466667	25.889
0.5	25.889
0.533333	25.889
0.566667	25.889
0.6	25.889
0.633333	25.889
0.666667	25.889
0.7	25.889
0.733333	25.889
0.766667	25.889
0.8	25.889
0.833333	25.889
0.866667	25.889
0.9	25.889
0.933333	25.889
0.966667	25.889
1	25.889
0	27.7691
0.0333333	27.7691
0.0666667	27.7691
0.1	27.7691
0.133333	27.7691
0.166667	27.7691
0.2	27.7691
0.233333	27.7691
0.266667	27.7691
0.3	27.7691
0.333333	27.7691
0.366667	27.7691
0.4	27.7691
0.433333	27.7691
0.466667	27.7691
0.5	27.7691
0.533333	27.7691
0.566667	27.7691
0.6	27.7691
0.633333	27.7691
0.666667	27.7691
0.7	27.7691
0.733333	27.7691
0.766667	27.7691
0.8	27.7691
0.833333	27.7691
0.866667	27.7691
0.9	27.7691
0.933333	27.7691
0.966667	27.7691
1	27.7691
0	29.7291
0.0333333	29.7291
0.0666667	29.7291
0.1	29.7291
0.133333	29.7291
0.166667	29.7291
0.2	29.7291
0.233333	29.7291
0.266667	29.7291
0.3	29.7291
0.333333	29.7291
0.366667	29.7291
0.4	29.7291
0.433333	29.7291
0.466667	29.7291
0.5	29.7291
0.533333	29.7291
0.566667	29.7291
0.6	29.7291
0.633333	29.7291
0.666667	29.7291
0.7	29.7291
0.733333	29.7291
0.766667	29.7291
0.8	29.7291
0.833333	29.7291
0.866667	29.7291
0.9	29.7291
0.933333	29.7291
0.966667	29.7291
1	29.7291
0	31.7691
0.0333333	31.7691
0.0666667	31.7691
0.1	31.7691
0.133333	31.7691
0.166667	31.7691
0.2	31.7691
0.233333	31.7691
0.266667	31.7691
0.3	31.7691
0.333333	31.7691
0.366667	31.7691
0.4	31.7691
0.433333	31.7691
0.466667	31.7691
0.5	31.7691
0.533333	31.7691
0.566667	31.7691
0.6	31.7691
0.633333	31.7691
0.666667	31.7691
0.7	31.7691
0.733333	31.7691
0.766667	31.7691
0.8	31.7691
0.833333	31.7691
0.866667	31.7691
0.9	31.7691
0.933333	31.7691
0.966667	31.7691
1	31.7691
