VARIABLES = X Y
ZONE I = 31, J = 51, F = POINT
0	0
0.0333333	0
0.0666667	0
0.1	0
0.133333	0
0.166667	0
0.2	0
0.233333	0
0.266667	0
0.3	0
0.333333	0
0.366667	0
0.4	0
0.433333	0
0.466667	0
0.5	0
0.533333	0
0.566667	0
0.6	0
0.633333	0
0.666667	0
0.7	0
0.733333	0
0.766667	0
0.8	0
0.833333	0
0.866667	0
0.9	0
0.933333	0
0.966667	0
1	0
0	0.0282606
0.0333333	0.0282606
0.0666667	0.0282606
0.1	0.0282606
0.133333	0.0282606
0.166667	0.0282606
0.2	0.0282606
0.233333	0.0282606
0.266667	0.0282606
0.3	0.0282606
0.333333	0.0282606
0.366667	0.0282606
0.4	0.0282606
0.433333	0.0282606
0.466667	0.0282606
0.5	0.0282606
0.533333	0.0282606
0.566667	0.0282606
0.6	0.0282606
0.633333	0.0282606
0.666667	0.0282606
0.7	0.0282606
0.733333	0.0282606
0.766667	0.0282606
0.8	0.0282606
0.833333	0.0282606
0.866667	0.0282606
0.9	0.0282606
0.933333	0.0282606
0.966667	0.0282606
1	0.0282606
0	0.0521873
0.0333333	0.0521873
0.0666667	0.0521873
0.1	0.0521873
0.133333	0.0521873
0.166667	0.0521873
0.2	0.0521873
0.233333	0.0521873
0.266667	0.0521873
0.3	0.0521873
0.333333	0.0521873
0.366667	0.0521873
0.4	0.0521873
0.433333	0.0521873
0.466667	0.0521873
0.5	0.0521873
0.533333	0.0521873
0.566667	0.0521873
0.6	0.0521873
0.633333	0.0521873
0.666667	0.0521873
0.7	0.0521873
0.733333	0.0521873
0.766667	0.0521873
0.8	0.0521873
0.833333	0.0521873
0.866667	0.0521873
0.9	0.0521873
0.933333	0.0521873
0.966667	0.0521873
1	0.0521873
0	0.0721412
0.0333333	0.0721412
0.0666667	0.0721412
0.1	0.0721412
0.133333	0.0721412
0.166667	0.0721412
0.2	0.0721412
0.233333	0.0721412
0.266667	0.0721412
0.3	0.0721412
0.333333	0.0721412
0.366667	0.0721412
0.4	0.0721412
0.433333	0.0721412
0.466667	0.0721412
0.5	0.0721412
0.533333	0.0721412
0.566667	0.0721412
0.6	0.0721412
0.633333	0.0721412
0.666667	0.0721412
0.7	0.0721412
0.733333	0.0721412
0.766667	0.0721412
0.8	0.0721412
0.833333	0.0721412
0.866667	0.0721412
0.9	0.0721412
0.933333	0.0721412
0.966667	0.0721412
1	0.0721412
0	0.0884836
0.0333333	0.0884836
0.0666667	0.0884836
0.1	0.0884836
0.133333	0.0884836
0.166667	0.0884836
0.2	0.0884836
0.233333	0.0884836
0.266667	0.0884836
0.3	0.0884836
0.333333	0.0884836
0.366667	0.0884836
0.4	0.0884836
0.433333	0.0884836
0.466667	0.0884836
0.5	0.0884836
0.533333	0.0884836
0.566667	0.0884836
0.6	0.0884836
0.633333	0.0884836
0.666667	0.0884836
0.7	0.0884836
0.733333	0.0884836
0.766667	0.0884836
0.8	0.0884836
0.833333	0.0884836
0.866667	0.0884836
0.9	0.0884836
0.933333	0.0884836
0.966667	0.0884836
1	0.0884836
0	0.101576
0.0333333	0.101576
0.0666667	0.101576
0.1	0.101576
0.133333	0.101576
0.166667	0.101576
0.2	0.101576
0.233333	0.101576
0.266667	0.101576
0.3	0.101576
0.333333	0.101576
0.366667	0.101576
0.4	0.101576
0.433333	0.101576
0.466667	0.101576
0.5	0.101576
0.533333	0.101576
0.566667	0.101576
0.6	0.101576
0.633333	0.101576
0.666667	0.101576
0.7	0.101576
0.733333	0.101576
0.766667	0.101576
0.8	0.101576
0.833333	0.101576
0.866667	0.101576
0.9	0.101576
0.933333	0.101576
0.966667	0.101576
1	0.101576
0	0.111778
0.0333333	0.111778
0.0666667	0.111778
0.1	0.111778
0.133333	0.111778
0.166667	0.111778
0.2	0.111778
0.233333	0.111778
0.266667	0.111778
0.3	0.111778
0.333333	0.111778
0.366667	0.111778
0.4	0.111778
0.433333	0.111778
0.466667	0.111778
0.5	0.111778
0.533333	0.111778
0.566667	0.111778
0.6	0.111778
0.633333	0.111778
0.666667	0.111778
0.7	0.111778
0.733333	0.111778
0.766667	0.111778
0.8	0.111778
0.833333	0.111778
0.866667	0.111778
0.9	0.111778
0.933333	0.111778
0.966667	0.111778
1	0.111778
0	0.119453
0.0333333	0.119453
0.0666667	0.119453
0.1	0.119453
0.133333	0.119453
0.166667	0.119453
0.2	0.119453
0.233333	0.119453
0.266667	0.119453
0.3	0.119453
0.333333	0.119453
0.366667	0.119453
0.4	0.119453
0.433333	0.119453
0.466667	0.119453
0.5	0.119453
0.533333	0.119453
0.566667	0.119453
0.6	0.119453
0.633333	0.119453
0.666667	0.119453
0.7	0.119453
0.733333	0.119453
0.766667	0.119453
0.8	0.119453
0.833333	0.119453
0.866667	0.119453
0.9	0.119453
0.933333	0.119453
0.966667	0.119453
1	0.119453
0	0.12496
0.0333333	0.12496
0.0666667	0.12496
0.1	0.12496
0.133333	0.12496
0.166667	0.12496
0.2	0.12496
0.233333	0.12496
0.266667	0.12496
0.3	0.12496
0.333333	0.12496
0.366667	0.12496
0.4	0.12496
0.433333	0.12496
0.466667	0.12496
0.5	0.12496
0.533333	0.12496
0.566667	0.12496
0.6	0.12496
0.633333	0.12496
0.666667	0.12496
0.7	0.12496
0.733333	0.12496
0.766667	0.12496
0.8	0.12496
0.833333	0.12496
0.866667	0.12496
0.9	0.12496
0.933333	0.12496
0.966667	0.12496
1	0.12496
0	0.128662
0.0333333	0.128662
0.0666667	0.128662
0.1	0.128662
0.133333	0.128662
0.166667	0.128662
0.2	0.128662
0.233333	0.128662
0.266667	0.128662
0.3	0.128662
0.333333	0.128662
0.366667	0.128662
0.4	0.128662
0.433333	0.128662
0.466667	0.128662
0.5	0.128662
0.533333	0.128662
0.566667	0.128662
0.6	0.128662
0.633333	0.128662
0.666667	0.128662
0.7	0.128662
0.733333	0.128662
0.766667	0.128662
0.8	0.128662
0.833333	0.128662
0.866667	0.128662
0.9	0.128662
0.933333	0.128662
0.966667	0.128662
1	0.128662
0	0.13092
0.0333333	0.13092
0.0666667	0.13092
0.1	0.13092
0.133333	0.13092
0.166667	0.13092
0.2	0.13092
0.233333	0.13092
0.266667	0.13092
0.3	0.13092
0.333333	0.13092
0.366667	0.13092
0.4	0.13092
0.433333	0.13092
0.466667	0.13092
0.5	0.13092
0.533333	0.13092
0.566667	0.13092
0.6	0.13092
0.633333	0.13092
0.666667	0.13092
0.7	0.13092
0.733333	0.13092
0.766667	0.13092
0.8	0.13092
0.833333	0.13092
0.866667	0.13092
0.9	0.13092
0.933333	0.13092
0.966667	0.13092
1	0.13092
0	0.132093
0.0333333	0.132093
0.0666667	0.132093
0.1	0.132093
0.133333	0.132093
0.166667	0.132093
0.2	0.132093
0.233333	0.132093
0.266667	0.132093
0.3	0.132093
0.333333	0.132093
0.366667	0.132093
0.4	0.132093
0.433333	0.132093
0.466667	0.132093
0.5	0.132093
0.533333	0.132093
0.566667	0.132093
0.6	0.132093
0.633333	0.132093
0.666667	0.132093
0.7	0.132093
0.733333	0.132093
0.766667	0.132093
0.8	0.132093
0.833333	0.132093
0.866667	0.132093
0.9	0.132093
0.933333	0.132093
0.966667	0.132093
1	0.132093
0	0.132545
0.0333333	0.132545
0.0666667	0.132545
0.1	0.132545
0.133333	0.132545
0.166667	0.132545
0.2	0.132545
0.233333	0.132545
0.266667	0.132545
0.3	0.132545
0.333333	0.132545
0.366667	0.132545
0.4	0.132545
0.433333	0.132545
0.466667	0.132545
0.5	0.132545
0.533333	0.132545
0.566667	0.132545
0.6	0.132545
0.633333	0.132545
0.666667	0.132545
0.7	0.132545
0.733333	0.132545
0.766667	0.132545
0.8	0.132545
0.833333	0.132545
0.866667	0.132545
0.9	0.132545
0.933333	0.132545
0.966667	0.132545
1	0.132545
0	0.132635
0.0333333	0.132635
0.0666667	0.132635
0.1	0.132635
0.133333	0.132635
0.166667	0.132635
0.2	0.132635
0.233333	0.132635
0.266667	0.132635
0.3	0.132635
0.333333	0.132635
0.366667	0.132635
0.4	0.132635
0.433333	0.132635
0.466667	0.132635
0.5	0.132635
0.533333	0.132635
0.566667	0.132635
0.6	0.132635
0.633333	0.132635
0.666667	0.132635
0.7	0.132635
0.733333	0.132635
0.766667	0.132635
0.8	0.132635
0.833333	0.132635
0.866667	0.132635
0.9	0.132635
0.933333	0.132635
0.966667	0.132635
1	0.132635
0	0.132725
0.0333333	0.132725
0.0666667	0.132725
0.1	0.132725
0.133333	0.132725
0.166667	0.132725
0.2	0.132725
0.233333	0.132725
0.266667	0.132725
0.3	0.132725
0.333333	0.132725
0.366667	0.132725
0.4	0.132725
0.433333	0.132725
0.466667	0.132725
0.5	0.132725
0.533333	0.132725
0.566667	0.132725
0.6	0.132725
0.633333	0.132725
0.666667	0.132725
0.7	0.132725
0.733333	0.132725
0.766667	0.132725
0.8	0.132725
0.833333	0.132725
0.866667	0.132725
0.9	0.132725
0.933333	0.132725
0.966667	0.132725
1	0.132725
0	0.133177
0.0333333	0.133177
0.0666667	0.133177
0.1	0.133177
0.133333	0.133177
0.166667	0.133177
0.2	0.133177
0.233333	0.133177
0.266667	0.133177
0.3	0.133177
0.333333	0.133177
0.366667	0.133177
0.4	0.133177
0.433333	0.133177
0.466667	0.133177
0.5	0.133177
0.533333	0.133177
0.566667	0.133177
0.6	0.133177
0.633333	0.133177
0.666667	0.133177
0.7	0.133177
0.733333	0.133177
0.766667	0.133177
0.8	0.133177
0.833333	0.133177
0.866667	0.133177
0.9	0.133177
0.933333	0.133177
0.966667	0.133177
1	0.133177
0	0.134351
0.0333333	0.134351
0.0666667	0.134351
0.1	0.134351
0.133333	0.134351
0.166667	0.134351
0.2	0.134351
0.233333	0.134351
0.266667	0.134351
0.3	0.134351
0.333333	0.134351
0.366667	0.134351
0.4	0.134351
0.433333	0.134351
0.466667	0.134351
0.5	0.134351
0.533333	0.134351
0.566667	0.134351
0.6	0.134351
0.633333	0.134351
0.666667	0.134351
0.7	0.134351
0.733333	0.134351
0.766667	0.134351
0.8	0.134351
0.833333	0.134351
0.866667	0.134351
0.9	0.134351
0.933333	0.134351
0.966667	0.134351
1	0.134351
0	0.136608
0.0333333	0.136608
0.0666667	0.136608
0.1	0.136608
0.133333	0.136608
0.166667	0.136608
0.2	0.136608
0.233333	0.136608
0.266667	0.136608
0.3	0.136608
0.333333	0.136608
0.366667	0.136608
0.4	0.136608
0.433333	0.136608
0.466667	0.136608
0.5	0.136608
0.533333	0.136608
0.566667	0.136608
0.6	0.136608
0.633333	0.136608
0.666667	0.136608
0.7	0.136608
0.733333	0.136608
0.766667	0.136608
0.8	0.136608
0.833333	0.136608
0.866667	0.136608
0.9	0.136608
0.933333	0.136608
0.966667	0.136608
1	0.136608
0	0.14031
0.0333333	0.14031
0.0666667	0.14031
0.1	0.14031
0.133333	0.14031
0.166667	0.14031
0.2	0.14031
0.233333	0.14031
0.266667	0.14031
0.3	0.14031
0.333333	0.14031
0.366667	0.14031
0.4	0.14031
0.433333	0.14031
0.466667	0.14031
0.5	0.14031
0.533333	0.14031
0.566667	0.14031
0.6	0.14031
0.633333	0.14031
0.666667	0.14031
0.7	0.14031
0.733333	0.14031
0.766667	0.14031
0.8	0.14031
0.833333	0.14031
0.866667	0.14031
0.9	0.14031
0.933333	0.14031
0.966667	0.14031
1	0.14031
0	0.145817
0.0333333	0.145817
0.0666667	0.145817
0.1	0.145817
0.133333	0.145817
0.166667	0.145817
0.2	0.145817
0.233333	0.145817
0.266667	0.145817
0.3	0.145817
0.333333	0.145817
0.366667	0.145817
0.4	0.145817
0.433333	0.145817
0.466667	0.145817
0.5	0.145817
0.533333	0.145817
0.566667	0.145817
0.6	0.145817
0.633333	0.145817
0.666667	0.145817
0.7	0.145817
0.733333	0.145817
0.766667	0.145817
0.8	0.145817
0.833333	0.145817
0.866667	0.145817
0.9	0.145817
0.933333	0.145817
0.966667	0.145817
1	0.145817
0	0.153492
0.0333333	0.153492
0.0666667	0.153492
0.1	0.153492
0.133333	0.153492
0.166667	0.153492
0.2	0.153492
0.233333	0.153492
0.266667	0.153492
0.3	0.153492
0.333333	0.153492
0.366667	0.153492
0.4	0.153492
0.433333	0.153492
0.466667	0.153492
0.5	0.153492
0.533333	0.153492
0.566667	0.153492
0.6	0.153492
0.633333	0.153492
0.666667	0.153492
0.7	0.153492
0.733333	0.153492
0.766667	0.153492
0.8	0.153492
0.833333	0.153492
0.866667	0.153492
0.9	0.153492
0.933333	0.153492
0.966667	0.153492
1	0.153492
0	0.163695
0.0333333	0.163695
0.0666667	0.163695
0.1	0.163695
0.133333	0.163695
0.166667	0.163695
0.2	0.163695
0.233333	0.163695
0.266667	0.163695
0.3	0.163695
0.333333	0.163695
0.366667	0.163695
0.4	0.163695
0.433333	0.163695
0.466667	0.163695
0.5	0.163695
0.533333	0.163695
0.566667	0.163695
0.6	0.163695
0.633333	0.163695
0.666667	0.163695
0.7	0.163695
0.733333	0.163695
0.766667	0.163695
0.8	0.163695
0.833333	0.163695
0.866667	0.163695
0.9	0.163695
0.933333	0.163695
0.966667	0.163695
1	0.163695
0	0.176787
0.0333333	0.176787
0.0666667	0.176787
0.1	0.176787
0.133333	0.176787
0.166667	0.176787
0.2	0.176787
0.233333	0.176787
0.266667	0.176787
0.3	0.176787
0.333333	0.176787
0.366667	0.176787
0.4	0.176787
0.433333	0.176787
0.466667	0.176787
0.5	0.176787
0.533333	0.176787
0.566667	0.176787
0.6	0.176787
0.633333	0.176787
0.666667	0.176787
0.7	0.176787
0.733333	0.176787
0.766667	0.176787
0.8	0.176787
0.833333	0.176787
0.866667	0.176787
0.9	0.176787
0.933333	0.176787
0.966667	0.176787
1	0.176787
0	0.193129
0.0333333	0.193129
0.0666667	0.193129
0.1	0.193129
0.133333	0.193129
0.166667	0.193129
0.2	0.193129
0.233333	0.193129
0.266667	0.193129
0.3	0.193129
0.333333	0.193129
0.366667	0.193129
0.4	0.193129
0.433333	0.193129
0.466667	0.193129
0.5	0.193129
0.533333	0.193129
0.566667	0.193129
0.6	0.193129
0.633333	0.193129
0.666667	0.193129
0.7	0.193129
0.733333	0.193129
0.766667	0.193129
0.8	0.193129
0.833333	0.193129
0.866667	0.193129
0.9	0.193129
0.933333	0.193129
0.966667	0.193129
1	0.193129
0	0.213083
0.0333333	0.213083
0.0666667	0.213083
0.1	0.213083
0.133333	0.213083
0.166667	0.213083
0.2	0.213083
0.233333	0.213083
0.266667	0.213083
0.3	0.213083
0.333333	0.213083
0.366667	0.213083
0.4	0.213083
0.433333	0.213083
0.466667	0.213083
0.5	0.213083
0.533333	0.213083
0.566667	0.213083
0.6	0.213083
0.633333	0.213083
0.666667	0.213083
0.7	0.213083
0.733333	0.213083
0.766667	0.213083
0.8	0.213083
0.833333	0.213083
0.866667	0.213083
0.9	0.213083
0.933333	0.213083
0.966667	0.213083
1	0.213083
0	0.23701
0.0333333	0.23701
0.0666667	0.23701
0.1	0.23701
0.133333	0.23701
0.166667	0.23701
0.2	0.23701
0.233333	0.23701
0.266667	0.23701
0.3	0.23701
0.333333	0.23701
0.366667	0.23701
0.4	0.23701
0.433333	0.23701
0.466667	0.23701
0.5	0.23701
0.533333	0.23701
0.566667	0.23701
0.6	0.23701
0.633333	0.23701
0.666667	0.23701
0.7	0.23701
0.733333	0.23701
0.766667	0.23701
0.8	0.23701
0.833333	0.23701
0.866667	0.23701
0.9	0.23701
0.933333	0.23701
0.966667	0.23701
1	0.23701
0	0.26527
0.0333333	0.26527
0.0666667	0.26527
0.1	0.26527
0.133333	0.26527
0.166667	0.26527
0.2	0.26527
0.233333	0.26527
0.266667	0.26527
0.3	0.26527
0.333333	0.26527
0.366667	0.26527
0.4	0.26527
0.433333	0.26527
0.466667	0.26527
0.5	0.26527
0.533333	0.26527
0.566667	0.26527
0.6	0.26527
0.633333	0.26527
0.666667	0.26527
0.7	0.26527
0.733333	0.26527
0.766667	0.26527
0.8	0.26527
0.833333	0.26527
0.866667	0.26527
0.9	0.26527
0.933333	0.26527
0.966667	0.26527
1	0.26527
0	0.298226
0.0333333	0.298226
0.0666667	0.298226
0.1	0.298226
0.133333	0.298226
0.166667	0.298226
0.2	0.298226
0.233333	0.298226
0.266667	0.298226
0.3	0.298226
0.333333	0.298226
0.366667	0.298226
0.4	0.298226
0.433333	0.298226
0.466667	0.298226
0.5	0.298226
0.533333	0.298226
0.566667	0.298226
0.6	0.298226
0.633333	0.298226
0.666667	0.298226
0.7	0.298226
0.733333	0.298226
0.766667	0.298226
0.8	0.298226
0.833333	0.298226
0.866667	0.298226
0.9	0.298226
0.933333	0.298226
0.966667	0.298226
1	0.298226
0	0.336238
0.0333333	0.336238
0.0666667	0.336238
0.1	0.336238
0.133333	0.336238
0.166667	0.336238
0.2	0.336238
0.233333	0.336238
0.266667	0.336238
0.3	0.336238
0.333333	0.336238
0.366667	0.336238
0.4	0.336238
0.433333	0.336238
0.466667	0.336238
0.5	0.336238
0.533333	0.336238
0.566667	0.336238
0.6	0.336238
0.633333	0.336238
0.666667	0.336238
0.7	0.336238
0.733333	0.336238
0.766667	0.336238
0.8	0.336238
0.833333	0.336238
0.866667	0.336238
0.9	0.336238
0.933333	0.336238
0.966667	0.336238
1	0.336238
0	0.379667
0.0333333	0.379667
0.0666667	0.379667
0.1	0.379667
0.133333	0.379667
0.166667	0.379667
0.2	0.379667
0.233333	0.379667
0.266667	0.379667
0.3	0.379667
0.333333	0.379667
0.366667	0.379667
0.4	0.379667
0.433333	0.379667
0.466667	0.379667
0.5	0.379667
0.533333	0.379667
0.566667	0.379667
0.6	0.379667
0.633333	0.379667
0.666667	0.379667
0.7	0.379667
0.733333	0.379667
0.766667	0.379667
0.8	0.379667
0.833333	0.379667
0.866667	0.379667
0.9	0.379667
0.933333	0.379667
0.966667	0.379667
1	0.379667
0	0.428875
0.0333333	0.428875
0.0666667	0.428875
0.1	0.428875
0.133333	0.428875
0.166667	0.428875
0.2	0.428875
0.233333	0.428875
0.266667	0.428875
0.3	0.428875
0.333333	0.428875
0.366667	0.428875
0.4	0.428875
0.433333	0.428875
0.466667	0.428875
0.5	0.428875
0.533333	0.428875
0.566667	0.428875
0.6	0.428875
0.633333	0.428875
0.666667	0.428875
0.7	0.428875
0.733333	0.428875
0.766667	0.428875
0.8	0.428875
0.833333	0.428875
0.866667	0.428875
0.9	0.428875
0.933333	0.428875
0.966667	0.428875
1	0.428875
0	0.484222
0.0333333	0.484222
0.0666667	0.484222
0.1	0.484222
0.133333	0.484222
0.166667	0.484222
0.2	0.484222
0.233333	0.484222
0.266667	0.484222
0.3	0.484222
0.333333	0.484222
0.366667	0.484222
0.4	0.484222
0.433333	0.484222
0.466667	0.484222
0.5	0.484222
0.533333	0.484222
0.566667	0.484222
0.6	0.484222
0.633333	0.484222
0.666667	0.484222
0.7	0.484222
0.733333	0.484222
0.766667	0.484222
0.8	0.484222
0.833333	0.484222
0.866667	0.484222
0.9	0.484222
0.933333	0.484222
0.966667	0.484222
1	0.484222
0	0.54607
0.0333333	0.54607
0.0666667	0.54607
0.1	0.54607
0.133333	0.54607
0.166667	0.54607
0.2	0.54607
0.233333	0.54607
0.266667	0.54607
0.3	0.54607
0.333333	0.54607
0.366667	0.54607
0.4	0.54607
0.433333	0.54607
0.466667	0.54607
0.5	0.54607
0.533333	0.54607
0.566667	0.54607
0.6	0.54607
0.633333	0.54607
0.666667	0.54607
0.7	0.54607
0.733333	0.54607
0.766667	0.54607
0.8	0.54607
0.833333	0.54607
0.866667	0.54607
0.9	0.54607
0.933333	0.54607
0.966667	0.54607
1	0.54607
0	0.61478
0.0333333	0.61478
0.0666667	0.61478
0.1	0.61478
0.133333	0.61478
0.166667	0.61478
0.2	0.61478
0.233333	0.61478
0.266667	0.61478
0.3	0.61478
0.333333	0.61478
0.366667	0.61478
0.4	0.61478
0.433333	0.61478
0.466667	0.61478
0.5	0.61478
0.533333	0.61478
0.566667	0.61478
0.6	0.61478
0.633333	0.61478
0.666667	0.61478
0.7	0.61478
0.733333	0.61478
0.766667	0.61478
0.8	0.61478
0.833333	0.61478
0.866667	0.61478
0.9	0.61478
0.933333	0.61478
0.966667	0.61478
1	0.61478
0	0.690714
0.0333333	0.690714
0.0666667	0.690714
0.1	0.690714
0.133333	0.690714
0.166667	0.690714
0.2	0.690714
0.233333	0.690714
0.266667	0.690714
0.3	0.690714
0.333333	0.690714
0.366667	0.690714
0.4	0.690714
0.433333	0.690714
0.466667	0.690714
0.5	0.690714
0.533333	0.690714
0.566667	0.690714
0.6	0.690714
0.633333	0.690714
0.666667	0.690714
0.7	0.690714
0.733333	0.690714
0.766667	0.690714
0.8	0.690714
0.833333	0.690714
0.866667	0.690714
0.9	0.690714
0.933333	0.690714
0.966667	0.690714
1	0.690714
0	0.774231
0.0333333	0.774231
0.0666667	0.774231
0.1	0.774231
0.133333	0.774231
0.166667	0.774231
0.2	0.774231
0.233333	0.774231
0.266667	0.774231
0.3	0.774231
0.333333	0.774231
0.366667	0.774231
0.4	0.774231
0.433333	0.774231
0.466667	0.774231
0.5	0.774231
0.533333	0.774231
0.566667	0.774231
0.6	0.774231
0.633333	0.774231
0.666667	0.774231
0.7	0.774231
0.733333	0.774231
0.766667	0.774231
0.8	0.774231
0.833333	0.774231
0.866667	0.774231
0.9	0.774231
0.933333	0.774231
0.966667	0.774231
1	0.774231
0	0.865695
0.0333333	0.865695
0.0666667	0.865695
0.1	0.865695
0.133333	0.865695
0.166667	0.865695
0.2	0.865695
0.233333	0.865695
0.266667	0.865695
0.3	0.865695
0.333333	0.865695
0.366667	0.865695
0.4	0.865695
0.433333	0.865695
0.466667	0.865695
0.5	0.865695
0.533333	0.865695
0.566667	0.865695
0.6	0.865695
0.633333	0.865695
0.666667	0.865695
0.7	0.865695
0.733333	0.865695
0.766667	0.865695
0.8	0.865695
0.833333	0.865695
0.866667	0.865695
0.9	0.865695
0.933333	0.865695
0.966667	0.865695
1	0.865695
0	0.965464
0.0333333	0.965464
0.0666667	0.965464
0.1	0.965464
0.133333	0.965464
0.166667	0.965464
0.2	0.965464
0.233333	0.965464
0.266667	0.965464
0.3	0.965464
0.333333	0.965464
0.366667	0.965464
0.4	0.965464
0.433333	0.965464
0.466667	0.965464
0.5	0.965464
0.533333	0.965464
0.566667	0.965464
0.6	0.965464
0.633333	0.965464
0.666667	0.965464
0.7	0.965464
0.733333	0.965464
0.766667	0.965464
0.8	0.965464
0.833333	0.965464
0.866667	0.965464
0.9	0.965464
0.933333	0.965464
0.966667	0.965464
1	0.965464
0	1.0739
0.0333333	1.0739
0.0666667	1.0739
0.1	1.0739
0.133333	1.0739
0.166667	1.0739
0.2	1.0739
0.233333	1.0739
0.266667	1.0739
0.3	1.0739
0.333333	1.0739
0.366667	1.0739
0.4	1.0739
0.433333	1.0739
0.466667	1.0739
0.5	1.0739
0.533333	1.0739
0.566667	1.0739
0.6	1.0739
0.633333	1.0739
0.666667	1.0739
0.7	1.0739
0.733333	1.0739
0.766667	1.0739
0.8	1.0739
0.833333	1.0739
0.866667	1.0739
0.9	1.0739
0.933333	1.0739
0.966667	1.0739
1	1.0739
0	1.19137
0.0333333	1.19137
0.0666667	1.19137
0.1	1.19137
0.133333	1.19137
0.166667	1.19137
0.2	1.19137
0.233333	1.19137
0.266667	1.19137
0.3	1.19137
0.333333	1.19137
0.366667	1.19137
0.4	1.19137
0.433333	1.19137
0.466667	1.19137
0.5	1.19137
0.533333	1.19137
0.566667	1.19137
0.6	1.19137
0.633333	1.19137
0.666667	1.19137
0.7	1.19137
0.733333	1.19137
0.766667	1.19137
0.8	1.19137
0.833333	1.19137
0.866667	1.19137
0.9	1.19137
0.933333	1.19137
0.966667	1.19137
1	1.19137
0	1.31822
0.0333333	1.31822
0.0666667	1.31822
0.1	1.31822
0.133333	1.31822
0.166667	1.31822
0.2	1.31822
0.233333	1.31822
0.266667	1.31822
0.3	1.31822
0.333333	1.31822
0.366667	1.31822
0.4	1.31822
0.433333	1.31822
0.466667	1.31822
0.5	1.31822
0.533333	1.31822
0.566667	1.31822
0.6	1.31822
0.633333	1.31822
0.666667	1.31822
0.7	1.31822
0.733333	1.31822
0.766667	1.31822
0.8	1.31822
0.833333	1.31822
0.866667	1.31822
0.9	1.31822
0.933333	1.31822
0.966667	1.31822
1	1.31822
0	1.45483
0.0333333	1.45483
0.0666667	1.45483
0.1	1.45483
0.133333	1.45483
0.166667	1.45483
0.2	1.45483
0.233333	1.45483
0.266667	1.45483
0.3	1.45483
0.333333	1.45483
0.366667	1.45483
0.4	1.45483
0.433333	1.45483
0.466667	1.45483
0.5	1.45483
0.533333	1.45483
0.566667	1.45483
0.6	1.45483
0.633333	1.45483
0.666667	1.45483
0.7	1.45483
0.733333	1.45483
0.766667	1.45483
0.8	1.45483
0.833333	1.45483
0.866667	1.45483
0.9	1.45483
0.933333	1.45483
0.966667	1.45483
1	1.45483
0	1.60155
0.0333333	1.60155
0.0666667	1.60155
0.1	1.60155
0.133333	1.60155
0.166667	1.60155
0.2	1.60155
0.233333	1.60155
0.266667	1.60155
0.3	1.60155
0.333333	1.60155
0.366667	1.60155
0.4	1.60155
0.433333	1.60155
0.466667	1.60155
0.5	1.60155
0.533333	1.60155
0.566667	1.60155
0.6	1.60155
0.633333	1.60155
0.666667	1.60155
0.7	1.60155
0.733333	1.60155
0.766667	1.60155
0.8	1.60155
0.833333	1.60155
0.866667	1.60155
0.9	1.60155
0.933333	1.60155
0.966667	1.60155
1	1.60155
0	1.75875
0.0333333	1.75875
0.0666667	1.75875
0.1	1.75875
0.133333	1.75875
0.166667	1.75875
0.2	1.75875
0.233333	1.75875
0.266667	1.75875
0.3	1.75875
0.333333	1.75875
0.366667	1.75875
0.4	1.75875
0.433333	1.75875
0.466667	1.75875
0.5	1.75875
0.533333	1.75875
0.566667	1.75875
0.6	1.75875
0.633333	1.75875
0.666667	1.75875
0.7	1.75875
0.733333	1.75875
0.766667	1.75875
0.8	1.75875
0.833333	1.75875
0.866667	1.75875
0.9	1.75875
0.933333	1.75875
0.966667	1.75875
1	1.75875
0	1.92678
0.0333333	1.92678
0.0666667	1.92678
0.1	1.92678
0.133333	1.92678
0.166667	1.92678
0.2	1.92678
0.233333	1.92678
0.266667	1.92678
0.3	1.92678
0.333333	1.92678
0.366667	1.92678
0.4	1.92678
0.433333	1.92678
0.466667	1.92678
0.5	1.92678
0.533333	1.92678
0.566667	1.92678
0.6	1.92678
0.633333	1.92678
0.666667	1.92678
0.7	1.92678
0.733333	1.92678
0.766667	1.92678
0.8	1.92678
0.833333	1.92678
0.866667	1.92678
0.9	1.92678
0.933333	1.92678
0.966667	1.92678
1	1.92678
0	2.106
0.0333333	2.106
0.0666667	2.106
0.1	2.106
0.133333	2.106
0.166667	2.106
0.2	2.106
0.233333	2.106
0.266667	2.106
0.3	2.106
0.333333	2.106
0.366667	2.106
0.4	2.106
0.433333	2.106
0.466667	2.106
0.5	2.106
0.533333	2.106
0.566667	2.106
0.6	2.106
0.633333	2.106
0.666667	2.106
0.7	2.106
0.733333	2.106
0.766667	2.106
0.8	2.106
0.833333	2.106
0.866667	2.106
0.9	2.106
0.933333	2.106
0.966667	2.106
1	2.106
0	2.29678
0.0333333	2.29678
0.0666667	2.29678
0.1	2.29678
0.133333	2.29678
0.166667	2.29678
0.2	2.29678
0.233333	2.29678
0.266667	2.29678
0.3	2.29678
0.333333	2.29678
0.366667	2.29678
0.4	2.29678
0.433333	2.29678
0.466667	2.29678
0.5	2.29678
0.533333	2.29678
0.566667	2.29678
0.6	2.29678
0.633333	2.29678
0.666667	2.29678
0.7	2.29678
0.733333	2.29678
0.766667	2.29678
0.8	2.29678
0.833333	2.29678
0.866667	2.29678
0.9	2.29678
0.933333	2.29678
0.966667	2.29678
1	2.29678
0	2.49948
0.0333333	2.49948
0.0666667	2.49948
0.1	2.49948
0.133333	2.49948
0.166667	2.49948
0.2	2.49948
0.233333	2.49948
0.266667	2.49948
0.3	2.49948
0.333333	2.49948
0.366667	2.49948
0.4	2.49948
0.433333	2.49948
0.466667	2.49948
0.5	2.49948
0.533333	2.49948
0.566667	2.49948
0.6	2.49948
0.633333	2.49948
0.666667	2.49948
0.7	2.49948
0.733333	2.49948
0.766667	2.49948
0.8	2.49948
0.833333	2.49948
0.866667	2.49948
0.9	2.49948
0.933333	2.49948
0.966667	2.49948
1	2.49948
0	2.71446
0.0333333	2.71446
0.0666667	2.71446
0.1	2.71446
0.133333	2.71446
0.166667	2.71446
0.2	2.71446
0.233333	2.71446
0.266667	2.71446
0.3	2.71446
0.333333	2.71446
0.366667	2.71446
0.4	2.71446
0.433333	2.71446
0.466667	2.71446
0.5	2.71446
0.533333	2.71446
0.566667	2.71446
0.6	2.71446
0.633333	2.71446
0.666667	2.71446
0.7	2.71446
0.733333	2.71446
0.766667	2.71446
0.8	2.71446
0.833333	2.71446
0.866667	2.71446
0.9	2.71446
0.933333	2.71446
0.966667	2.71446
1	2.71446
0	2.94208
0.0333333	2.94208
0.0666667	2.94208
0.1	2.94208
0.133333	2.94208
0.166667	2.94208
0.2	2.94208
0.233333	2.94208
0.266667	2.94208
0.3	2.94208
0.333333	2.94208
0.366667	2.94208
0.4	2.94208
0.433333	2.94208
0.466667	2.94208
0.5	2.94208
0.533333	2.94208
0.566667	2.94208
0.6	2.94208
0.633333	2.94208
0.666667	2.94208
0.7	2.94208
0.733333	2.94208
0.766667	2.94208
0.8	2.94208
0.833333	2.94208
0.866667	2.94208
0.9	2.94208
0.933333	2.94208
0.966667	2.94208
1	2.94208
0	3.1827
0.0333333	3.1827
0.0666667	3.1827
0.1	3.1827
0.133333	3.1827
0.166667	3.1827
0.2	3.1827
0.233333	3.1827
0.266667	3.1827
0.3	3.1827
0.333333	3.1827
0.366667	3.1827
0.4	3.1827
0.433333	3.1827
0.466667	3.1827
0.5	3.1827
0.533333	3.1827
0.566667	3.1827
0.6	3.1827
0.633333	3.1827
0.666667	3.1827
0.7	3.1827
0.733333	3.1827
0.766667	3.1827
0.8	3.1827
0.833333	3.1827
0.866667	3.1827
0.9	3.1827
0.933333	3.1827
0.966667	3.1827
1	3.1827
