VARIABLES = X Y
ZONE I = 51, J = 31, F = POINT
0.788675	0.5
0.798675	0.49
0.808675	0.48
0.818675	0.47
0.828675	0.46
0.838675	0.45
0.848675	0.44
0.858675	0.43
0.868675	0.42
0.878675	0.41
0.888675	0.4
0.898675	0.39
0.908675	0.38
0.918675	0.37
0.928675	0.36
0.938675	0.35
0.948675	0.34
0.958675	0.33
0.968675	0.32
0.978675	0.31
0.988675	0.3
0.998675	0.29
1.00868	0.28
1.01868	0.27
1.02868	0.26
1.03868	0.25
1.04868	0.24
1.05868	0.23
1.06868	0.22
1.07868	0.21
1.08868	0.2
1.09868	0.19
1.10868	0.18
1.11868	0.17
1.12868	0.16
1.13868	0.15
1.14868	0.14
1.15868	0.13
1.16868	0.12
1.17868	0.11
1.18868	0.1
1.19868	0.09
1.20868	0.08
1.21868	0.07
1.22868	0.06
1.23868	0.05
1.24868	0.04
1.25868	0.03
1.26868	0.02
1.27868	0.01
1.28868	0
0.788675	0.516667
0.798675	0.507
0.808675	0.497333
0.818675	0.487667
0.828675	0.478
0.838675	0.468333
0.848675	0.458667
0.858675	0.449
0.868675	0.439333
0.878675	0.429667
0.888675	0.42
0.898675	0.410333
0.908675	0.400667
0.918675	0.391
0.928675	0.381333
0.938675	0.371667
0.948675	0.362
0.958675	0.352333
0.968675	0.342667
0.978675	0.333
0.988675	0.323333
0.998675	0.313667
1.00868	0.304
1.01868	0.294333
1.02868	0.284667
1.03868	0.275
1.04868	0.265333
1.05868	0.255667
1.06868	0.246
1.07868	0.236333
1.08868	0.226667
1.09868	0.217
1.10868	0.207333
1.11868	0.197667
1.12868	0.188
1.13868	0.178333
1.14868	0.168667
1.15868	0.159
1.16868	0.149333
1.17868	0.139667
1.18868	0.13
1.19868	0.120333
1.20868	0.110667
1.21868	0.101
1.22868	0.0913333
1.23868	0.0816667
1.24868	0.072
1.25868	0.0623333
1.26868	0.0526667
1.27868	0.043
1.28868	0.0333333
0.788675	0.533333
0.798675	0.524
0.808675	0.514667
0.818675	0.505333
0.828675	0.496
0.838675	0.486667
0.848675	0.477333
0.858675	0.468
0.868675	0.458667
0.878675	0.449333
0.888675	0.44
0.898675	0.430667
0.908675	0.421333
0.918675	0.412
0.928675	0.402667
0.938675	0.393333
0.948675	0.384
0.958675	0.374667
0.968675	0.365333
0.978675	0.356
0.988675	0.346667
0.998675	0.337333
1.00868	0.328
1.01868	0.318667
1.02868	0.309333
1.03868	0.3
1.04868	0.290667
1.05868	0.281333
1.06868	0.272
1.07868	0.262667
1.08868	0.253333
1.09868	0.244
1.10868	0.234667
1.11868	0.225333
1.12868	0.216
1.13868	0.206667
1.14868	0.197333
1.15868	0.188
1.16868	0.178667
1.17868	0.169333
1.18868	0.16
1.19868	0.150667
1.20868	0.141333
1.21868	0.132
1.22868	0.122667
1.23868	0.113333
1.24868	0.104
1.25868	0.0946667
1.26868	0.0853333
1.27868	0.076
1.28868	0.0666667
0.788675	0.55
0.798675	0.541
0.808675	0.532
0.818675	0.523
0.828675	0.514
0.838675	0.505
0.848675	0.496
0.858675	0.487
0.868675	0.478
0.878675	0.469
0.888675	0.46
0.898675	0.451
0.908675	0.442
0.918675	0.433
0.928675	0.424
0.938675	0.415
0.948675	0.406
0.958675	0.397
0.968675	0.388
0.978675	0.379
0.988675	0.37
0.998675	0.361
1.00868	0.352
1.01868	0.343
1.02868	0.334
1.03868	0.325
1.04868	0.316
1.05868	0.307
1.06868	0.298
1.07868	0.289
1.08868	0.28
1.09868	0.271
1.10868	0.262
1.11868	0.253
1.12868	0.244
1.13868	0.235
1.14868	0.226
1.15868	0.217
1.16868	0.208
1.17868	0.199
1.18868	0.19
1.19868	0.181
1.20868	0.172
1.21868	0.163
1.22868	0.154
1.23868	0.145
1.24868	0.136
1.25868	0.127
1.26868	0.118
1.27868	0.109
1.28868	0.1
0.788675	0.566667
0.798675	0.558
0.808675	0.549333
0.818675	0.540667
0.828675	0.532
0.838675	0.523333
0.848675	0.514667
0.858675	0.506
0.868675	0.497333
0.878675	0.488667
0.888675	0.48
0.898675	0.471333
0.908675	0.462667
0.918675	0.454
0.928675	0.445333
0.938675	0.436667
0.948675	0.428
0.958675	0.419333
0.968675	0.410667
0.978675	0.402
0.988675	0.393333
0.998675	0.384667
1.00868	0.376
1.01868	0.367333
1.02868	0.358667
1.03868	0.35
1.04868	0.341333
1.05868	0.332667
1.06868	0.324
1.07868	0.315333
1.08868	0.306667
1.09868	0.298
1.10868	0.289333
1.11868	0.280667
1.12868	0.272
1.13868	0.263333
1.14868	0.254667
1.15868	0.246
1.16868	0.237333
1.17868	0.228667
1.18868	0.22
1.19868	0.211333
1.20868	0.202667
1.21868	0.194
1.22868	0.185333
1.23868	0.176667
1.24868	0.168
1.25868	0.159333
1.26868	0.150667
1.27868	0.142
1.28868	0.133333
0.788675	0.583333
0.798675	0.575
0.808675	0.566667
0.818675	0.558333
0.828675	0.55
0.838675	0.541667
0.848675	0.533333
0.858675	0.525
0.868675	0.516667
0.878675	0.508333
0.888675	0.5
0.898675	0.491667
0.908675	0.483333
0.918675	0.475
0.928675	0.466667
0.938675	0.458333
0.948675	0.45
0.958675	0.441667
0.968675	0.433333
0.978675	0.425
0.988675	0.416667
0.998675	0.408333
1.00868	0.4
1.01868	0.391667
1.02868	0.383333
1.03868	0.375
1.04868	0.366667
1.05868	0.358333
1.06868	0.35
1.07868	0.341667
1.08868	0.333333
1.09868	0.325
1.10868	0.316667
1.11868	0.308333
1.12868	0.3
1.13868	0.291667
1.14868	0.283333
1.15868	0.275
1.16868	0.266667
1.17868	0.258333
1.18868	0.25
1.19868	0.241667
1.20868	0.233333
1.21868	0.225
1.22868	0.216667
1.23868	0.208333
1.24868	0.2
1.25868	0.191667
1.26868	0.183333
1.27868	0.175
1.28868	0.166667
0.788675	0.6
0.798675	0.592
0.808675	0.584
0.818675	0.576
0.828675	0.568
0.838675	0.56
0.848675	0.552
0.858675	0.544
0.868675	0.536
0.878675	0.528
0.888675	0.52
0.898675	0.512
0.908675	0.504
0.918675	0.496
0.928675	0.488
0.938675	0.48
0.948675	0.472
0.958675	0.464
0.968675	0.456
0.978675	0.448
0.988675	0.44
0.998675	0.432
1.00868	0.424
1.01868	0.416
1.02868	0.408
1.03868	0.4
1.04868	0.392
1.05868	0.384
1.06868	0.376
1.07868	0.368
1.08868	0.36
1.09868	0.352
1.10868	0.344
1.11868	0.336
1.12868	0.328
1.13868	0.32
1.14868	0.312
1.15868	0.304
1.16868	0.296
1.17868	0.288
1.18868	0.28
1.19868	0.272
1.20868	0.264
1.21868	0.256
1.22868	0.248
1.23868	0.24
1.24868	0.232
1.25868	0.224
1.26868	0.216
1.27868	0.208
1.28868	0.2
0.788675	0.616667
0.798675	0.609
0.808675	0.601333
0.818675	0.593667
0.828675	0.586
0.838675	0.578333
0.848675	0.570667
0.858675	0.563
0.868675	0.555333
0.878675	0.547667
0.888675	0.54
0.898675	0.532333
0.908675	0.524667
0.918675	0.517
0.928675	0.509333
0.938675	0.501667
0.948675	0.494
0.958675	0.486333
0.968675	0.478667
0.978675	0.471
0.988675	0.463333
0.998675	0.455667
1.00868	0.448
1.01868	0.440333
1.02868	0.432667
1.03868	0.425
1.04868	0.417333
1.05868	0.409667
1.06868	0.402
1.07868	0.394333
1.08868	0.386667
1.09868	0.379
1.10868	0.371333
1.11868	0.363667
1.12868	0.356
1.13868	0.348333
1.14868	0.340667
1.15868	0.333
1.16868	0.325333
1.17868	0.317667
1.18868	0.31
1.19868	0.302333
1.20868	0.294667
1.21868	0.287
1.22868	0.279333
1.23868	0.271667
1.24868	0.264
1.25868	0.256333
1.26868	0.248667
1.27868	0.241
1.28868	0.233333
0.788675	0.633333
0.798675	0.626
0.808675	0.618667
0.818675	0.611333
0.828675	0.604
0.838675	0.596667
0.848675	0.589333
0.858675	0.582
0.868675	0.574667
0.878675	0.567333
0.888675	0.56
0.898675	0.552667
0.908675	0.545333
0.918675	0.538
0.928675	0.530667
0.938675	0.523333
0.948675	0.516
0.958675	0.508667
0.968675	0.501333
0.978675	0.494
0.988675	0.486667
0.998675	0.479333
1.00868	0.472
1.01868	0.464667
1.02868	0.457333
1.03868	0.45
1.04868	0.442667
1.05868	0.435333
1.06868	0.428
1.07868	0.420667
1.08868	0.413333
1.09868	0.406
1.10868	0.398667
1.11868	0.391333
1.12868	0.384
1.13868	0.376667
1.14868	0.369333
1.15868	0.362
1.16868	0.354667
1.17868	0.347333
1.18868	0.34
1.19868	0.332667
1.20868	0.325333
1.21868	0.318
1.22868	0.310667
1.23868	0.303333
1.24868	0.296
1.25868	0.288667
1.26868	0.281333
1.27868	0.274
1.28868	0.266667
0.788675	0.65
0.798675	0.643
0.808675	0.636
0.818675	0.629
0.828675	0.622
0.838675	0.615
0.848675	0.608
0.858675	0.601
0.868675	0.594
0.878675	0.587
0.888675	0.58
0.898675	0.573
0.908675	0.566
0.918675	0.559
0.928675	0.552
0.938675	0.545
0.948675	0.538
0.958675	0.531
0.968675	0.524
0.978675	0.517
0.988675	0.51
0.998675	0.503
1.00868	0.496
1.01868	0.489
1.02868	0.482
1.03868	0.475
1.04868	0.468
1.05868	0.461
1.06868	0.454
1.07868	0.447
1.08868	0.44
1.09868	0.433
1.10868	0.426
1.11868	0.419
1.12868	0.412
1.13868	0.405
1.14868	0.398
1.15868	0.391
1.16868	0.384
1.17868	0.377
1.18868	0.37
1.19868	0.363
1.20868	0.356
1.21868	0.349
1.22868	0.342
1.23868	0.335
1.24868	0.328
1.25868	0.321
1.26868	0.314
1.27868	0.307
1.28868	0.3
0.788675	0.666667
0.798675	0.66
0.808675	0.653333
0.818675	0.646667
0.828675	0.64
0.838675	0.633333
0.848675	0.626667
0.858675	0.62
0.868675	0.613333
0.878675	0.606667
0.888675	0.6
0.898675	0.593333
0.908675	0.586667
0.918675	0.58
0.928675	0.573333
0.938675	0.566667
0.948675	0.56
0.958675	0.553333
0.968675	0.546667
0.978675	0.54
0.988675	0.533333
0.998675	0.526667
1.00868	0.52
1.01868	0.513333
1.02868	0.506667
1.03868	0.5
1.04868	0.493333
1.05868	0.486667
1.06868	0.48
1.07868	0.473333
1.08868	0.466667
1.09868	0.46
1.10868	0.453333
1.11868	0.446667
1.12868	0.44
1.13868	0.433333
1.14868	0.426667
1.15868	0.42
1.16868	0.413333
1.17868	0.406667
1.18868	0.4
1.19868	0.393333
1.20868	0.386667
1.21868	0.38
1.22868	0.373333
1.23868	0.366667
1.24868	0.36
1.25868	0.353333
1.26868	0.346667
1.27868	0.34
1.28868	0.333333
0.788675	0.683333
0.798675	0.677
0.808675	0.670667
0.818675	0.664333
0.828675	0.658
0.838675	0.651667
0.848675	0.645333
0.858675	0.639
0.868675	0.632667
0.878675	0.626333
0.888675	0.62
0.898675	0.613667
0.908675	0.607333
0.918675	0.601
0.928675	0.594667
0.938675	0.588333
0.948675	0.582
0.958675	0.575667
0.968675	0.569333
0.978675	0.563
0.988675	0.556667
0.998675	0.550333
1.00868	0.544
1.01868	0.537667
1.02868	0.531333
1.03868	0.525
1.04868	0.518667
1.05868	0.512333
1.06868	0.506
1.07868	0.499667
1.08868	0.493333
1.09868	0.487
1.10868	0.480667
1.11868	0.474333
1.12868	0.468
1.13868	0.461667
1.14868	0.455333
1.15868	0.449
1.16868	0.442667
1.17868	0.436333
1.18868	0.43
1.19868	0.423667
1.20868	0.417333
1.21868	0.411
1.22868	0.404667
1.23868	0.398333
1.24868	0.392
1.25868	0.385667
1.26868	0.379333
1.27868	0.373
1.28868	0.366667
0.788675	0.7
0.798675	0.694
0.808675	0.688
0.818675	0.682
0.828675	0.676
0.838675	0.67
0.848675	0.664
0.858675	0.658
0.868675	0.652
0.878675	0.646
0.888675	0.64
0.898675	0.634
0.908675	0.628
0.918675	0.622
0.928675	0.616
0.938675	0.61
0.948675	0.604
0.958675	0.598
0.968675	0.592
0.978675	0.586
0.988675	0.58
0.998675	0.574
1.00868	0.568
1.01868	0.562
1.02868	0.556
1.03868	0.55
1.04868	0.544
1.05868	0.538
1.06868	0.532
1.07868	0.526
1.08868	0.52
1.09868	0.514
1.10868	0.508
1.11868	0.502
1.12868	0.496
1.13868	0.49
1.14868	0.484
1.15868	0.478
1.16868	0.472
1.17868	0.466
1.18868	0.46
1.19868	0.454
1.20868	0.448
1.21868	0.442
1.22868	0.436
1.23868	0.43
1.24868	0.424
1.25868	0.418
1.26868	0.412
1.27868	0.406
1.28868	0.4
0.788675	0.716667
0.798675	0.711
0.808675	0.705333
0.818675	0.699667
0.828675	0.694
0.838675	0.688333
0.848675	0.682667
0.858675	0.677
0.868675	0.671333
0.878675	0.665667
0.888675	0.66
0.898675	0.654333
0.908675	0.648667
0.918675	0.643
0.928675	0.637333
0.938675	0.631667
0.948675	0.626
0.958675	0.620333
0.968675	0.614667
0.978675	0.609
0.988675	0.603333
0.998675	0.597667
1.00868	0.592
1.01868	0.586333
1.02868	0.580667
1.03868	0.575
1.04868	0.569333
1.05868	0.563667
1.06868	0.558
1.07868	0.552333
1.08868	0.546667
1.09868	0.541
1.10868	0.535333
1.11868	0.529667
1.12868	0.524
1.13868	0.518333
1.14868	0.512667
1.15868	0.507
1.16868	0.501333
1.17868	0.495667
1.18868	0.49
1.19868	0.484333
1.20868	0.478667
1.21868	0.473
1.22868	0.467333
1.23868	0.461667
1.24868	0.456
1.25868	0.450333
1.26868	0.444667
1.27868	0.439
1.28868	0.433333
0.788675	0.733333
0.798675	0.728
0.808675	0.722667
0.818675	0.717333
0.828675	0.712
0.838675	0.706667
0.848675	0.701333
0.858675	0.696
0.868675	0.690667
0.878675	0.685333
0.888675	0.68
0.898675	0.674667
0.908675	0.669333
0.918675	0.664
0.928675	0.658667
0.938675	0.653333
0.948675	0.648
0.958675	0.642667
0.968675	0.637333
0.978675	0.632
0.988675	0.626667
0.998675	0.621333
1.00868	0.616
1.01868	0.610667
1.02868	0.605333
1.03868	0.6
1.04868	0.594667
1.05868	0.589333
1.06868	0.584
1.07868	0.578667
1.08868	0.573333
1.09868	0.568
1.10868	0.562667
1.11868	0.557333
1.12868	0.552
1.13868	0.546667
1.14868	0.541333
1.15868	0.536
1.16868	0.530667
1.17868	0.525333
1.18868	0.52
1.19868	0.514667
1.20868	0.509333
1.21868	0.504
1.22868	0.498667
1.23868	0.493333
1.24868	0.488
1.25868	0.482667
1.26868	0.477333
1.27868	0.472
1.28868	0.466667
0.788675	0.75
0.798675	0.745
0.808675	0.74
0.818675	0.735
0.828675	0.73
0.838675	0.725
0.848675	0.72
0.858675	0.715
0.868675	0.71
0.878675	0.705
0.888675	0.7
0.898675	0.695
0.908675	0.69
0.918675	0.685
0.928675	0.68
0.938675	0.675
0.948675	0.67
0.958675	0.665
0.968675	0.66
0.978675	0.655
0.988675	0.65
0.998675	0.645
1.00868	0.64
1.01868	0.635
1.02868	0.63
1.03868	0.625
1.04868	0.62
1.05868	0.615
1.06868	0.61
1.07868	0.605
1.08868	0.6
1.09868	0.595
1.10868	0.59
1.11868	0.585
1.12868	0.58
1.13868	0.575
1.14868	0.57
1.15868	0.565
1.16868	0.56
1.17868	0.555
1.18868	0.55
1.19868	0.545
1.20868	0.54
1.21868	0.535
1.22868	0.53
1.23868	0.525
1.24868	0.52
1.25868	0.515
1.26868	0.51
1.27868	0.505
1.28868	0.5
0.788675	0.766667
0.798675	0.762
0.808675	0.757333
0.818675	0.752667
0.828675	0.748
0.838675	0.743333
0.848675	0.738667
0.858675	0.734
0.868675	0.729333
0.878675	0.724667
0.888675	0.72
0.898675	0.715333
0.908675	0.710667
0.918675	0.706
0.928675	0.701333
0.938675	0.696667
0.948675	0.692
0.958675	0.687333
0.968675	0.682667
0.978675	0.678
0.988675	0.673333
0.998675	0.668667
1.00868	0.664
1.01868	0.659333
1.02868	0.654667
1.03868	0.65
1.04868	0.645333
1.05868	0.640667
1.06868	0.636
1.07868	0.631333
1.08868	0.626667
1.09868	0.622
1.10868	0.617333
1.11868	0.612667
1.12868	0.608
1.13868	0.603333
1.14868	0.598667
1.15868	0.594
1.16868	0.589333
1.17868	0.584667
1.18868	0.58
1.19868	0.575333
1.20868	0.570667
1.21868	0.566
1.22868	0.561333
1.23868	0.556667
1.24868	0.552
1.25868	0.547333
1.26868	0.542667
1.27868	0.538
1.28868	0.533333
0.788675	0.783333
0.798675	0.779
0.808675	0.774667
0.818675	0.770333
0.828675	0.766
0.838675	0.761667
0.848675	0.757333
0.858675	0.753
0.868675	0.748667
0.878675	0.744333
0.888675	0.74
0.898675	0.735667
0.908675	0.731333
0.918675	0.727
0.928675	0.722667
0.938675	0.718333
0.948675	0.714
0.958675	0.709667
0.968675	0.705333
0.978675	0.701
0.988675	0.696667
0.998675	0.692333
1.00868	0.688
1.01868	0.683667
1.02868	0.679333
1.03868	0.675
1.04868	0.670667
1.05868	0.666333
1.06868	0.662
1.07868	0.657667
1.08868	0.653333
1.09868	0.649
1.10868	0.644667
1.11868	0.640333
1.12868	0.636
1.13868	0.631667
1.14868	0.627333
1.15868	0.623
1.16868	0.618667
1.17868	0.614333
1.18868	0.61
1.19868	0.605667
1.20868	0.601333
1.21868	0.597
1.22868	0.592667
1.23868	0.588333
1.24868	0.584
1.25868	0.579667
1.26868	0.575333
1.27868	0.571
1.28868	0.566667
0.788675	0.8
0.798675	0.796
0.808675	0.792
0.818675	0.788
0.828675	0.784
0.838675	0.78
0.848675	0.776
0.858675	0.772
0.868675	0.768
0.878675	0.764
0.888675	0.76
0.898675	0.756
0.908675	0.752
0.918675	0.748
0.928675	0.744
0.938675	0.74
0.948675	0.736
0.958675	0.732
0.968675	0.728
0.978675	0.724
0.988675	0.72
0.998675	0.716
1.00868	0.712
1.01868	0.708
1.02868	0.704
1.03868	0.7
1.04868	0.696
1.05868	0.692
1.06868	0.688
1.07868	0.684
1.08868	0.68
1.09868	0.676
1.10868	0.672
1.11868	0.668
1.12868	0.664
1.13868	0.66
1.14868	0.656
1.15868	0.652
1.16868	0.648
1.17868	0.644
1.18868	0.64
1.19868	0.636
1.20868	0.632
1.21868	0.628
1.22868	0.624
1.23868	0.62
1.24868	0.616
1.25868	0.612
1.26868	0.608
1.27868	0.604
1.28868	0.6
0.788675	0.816667
0.798675	0.813
0.808675	0.809333
0.818675	0.805667
0.828675	0.802
0.838675	0.798333
0.848675	0.794667
0.858675	0.791
0.868675	0.787333
0.878675	0.783667
0.888675	0.78
0.898675	0.776333
0.908675	0.772667
0.918675	0.769
0.928675	0.765333
0.938675	0.761667
0.948675	0.758
0.958675	0.754333
0.968675	0.750667
0.978675	0.747
0.988675	0.743333
0.998675	0.739667
1.00868	0.736
1.01868	0.732333
1.02868	0.728667
1.03868	0.725
1.04868	0.721333
1.05868	0.717667
1.06868	0.714
1.07868	0.710333
1.08868	0.706667
1.09868	0.703
1.10868	0.699333
1.11868	0.695667
1.12868	0.692
1.13868	0.688333
1.14868	0.684667
1.15868	0.681
1.16868	0.677333
1.17868	0.673667
1.18868	0.67
1.19868	0.666333
1.20868	0.662667
1.21868	0.659
1.22868	0.655333
1.23868	0.651667
1.24868	0.648
1.25868	0.644333
1.26868	0.640667
1.27868	0.637
1.28868	0.633333
0.788675	0.833333
0.798675	0.83
0.808675	0.826667
0.818675	0.823333
0.828675	0.82
0.838675	0.816667
0.848675	0.813333
0.858675	0.81
0.868675	0.806667
0.878675	0.803333
0.888675	0.8
0.898675	0.796667
0.908675	0.793333
0.918675	0.79
0.928675	0.786667
0.938675	0.783333
0.948675	0.78
0.958675	0.776667
0.968675	0.773333
0.978675	0.77
0.988675	0.766667
0.998675	0.763333
1.00868	0.76
1.01868	0.756667
1.02868	0.753333
1.03868	0.75
1.04868	0.746667
1.05868	0.743333
1.06868	0.74
1.07868	0.736667
1.08868	0.733333
1.09868	0.73
1.10868	0.726667
1.11868	0.723333
1.12868	0.72
1.13868	0.716667
1.14868	0.713333
1.15868	0.71
1.16868	0.706667
1.17868	0.703333
1.18868	0.7
1.19868	0.696667
1.20868	0.693333
1.21868	0.69
1.22868	0.686667
1.23868	0.683333
1.24868	0.68
1.25868	0.676667
1.26868	0.673333
1.27868	0.67
1.28868	0.666667
0.788675	0.85
0.798675	0.847
0.808675	0.844
0.818675	0.841
0.828675	0.838
0.838675	0.835
0.848675	0.832
0.858675	0.829
0.868675	0.826
0.878675	0.823
0.888675	0.82
0.898675	0.817
0.908675	0.814
0.918675	0.811
0.928675	0.808
0.938675	0.805
0.948675	0.802
0.958675	0.799
0.968675	0.796
0.978675	0.793
0.988675	0.79
0.998675	0.787
1.00868	0.784
1.01868	0.781
1.02868	0.778
1.03868	0.775
1.04868	0.772
1.05868	0.769
1.06868	0.766
1.07868	0.763
1.08868	0.76
1.09868	0.757
1.10868	0.754
1.11868	0.751
1.12868	0.748
1.13868	0.745
1.14868	0.742
1.15868	0.739
1.16868	0.736
1.17868	0.733
1.18868	0.73
1.19868	0.727
1.20868	0.724
1.21868	0.721
1.22868	0.718
1.23868	0.715
1.24868	0.712
1.25868	0.709
1.26868	0.706
1.27868	0.703
1.28868	0.7
0.788675	0.866667
0.798675	0.864
0.808675	0.861333
0.818675	0.858667
0.828675	0.856
0.838675	0.853333
0.848675	0.850667
0.858675	0.848
0.868675	0.845333
0.878675	0.842667
0.888675	0.84
0.898675	0.837333
0.908675	0.834667
0.918675	0.832
0.928675	0.829333
0.938675	0.826667
0.948675	0.824
0.958675	0.821333
0.968675	0.818667
0.978675	0.816
0.988675	0.813333
0.998675	0.810667
1.00868	0.808
1.01868	0.805333
1.02868	0.802667
1.03868	0.8
1.04868	0.797333
1.05868	0.794667
1.06868	0.792
1.07868	0.789333
1.08868	0.786667
1.09868	0.784
1.10868	0.781333
1.11868	0.778667
1.12868	0.776
1.13868	0.773333
1.14868	0.770667
1.15868	0.768
1.16868	0.765333
1.17868	0.762667
1.18868	0.76
1.19868	0.757333
1.20868	0.754667
1.21868	0.752
1.22868	0.749333
1.23868	0.746667
1.24868	0.744
1.25868	0.741333
1.26868	0.738667
1.27868	0.736
1.28868	0.733333
0.788675	0.883333
0.798675	0.881
0.808675	0.878667
0.818675	0.876333
0.828675	0.874
0.838675	0.871667
0.848675	0.869333
0.858675	0.867
0.868675	0.864667
0.878675	0.862333
0.888675	0.86
0.898675	0.857667
0.908675	0.855333
0.918675	0.853
0.928675	0.850667
0.938675	0.848333
0.948675	0.846
0.958675	0.843667
0.968675	0.841333
0.978675	0.839
0.988675	0.836667
0.998675	0.834333
1.00868	0.832
1.01868	0.829667
1.02868	0.827333
1.03868	0.825
1.04868	0.822667
1.05868	0.820333
1.06868	0.818
1.07868	0.815667
1.08868	0.813333
1.09868	0.811
1.10868	0.808667
1.11868	0.806333
1.12868	0.804
1.13868	0.801667
1.14868	0.799333
1.15868	0.797
1.16868	0.794667
1.17868	0.792333
1.18868	0.79
1.19868	0.787667
1.20868	0.785333
1.21868	0.783
1.22868	0.780667
1.23868	0.778333
1.24868	0.776
1.25868	0.773667
1.26868	0.771333
1.27868	0.769
1.28868	0.766667
0.788675	0.9
0.798675	0.898
0.808675	0.896
0.818675	0.894
0.828675	0.892
0.838675	0.89
0.848675	0.888
0.858675	0.886
0.868675	0.884
0.878675	0.882
0.888675	0.88
0.898675	0.878
0.908675	0.876
0.918675	0.874
0.928675	0.872
0.938675	0.87
0.948675	0.868
0.958675	0.866
0.968675	0.864
0.978675	0.862
0.988675	0.86
0.998675	0.858
1.00868	0.856
1.01868	0.854
1.02868	0.852
1.03868	0.85
1.04868	0.848
1.05868	0.846
1.06868	0.844
1.07868	0.842
1.08868	0.84
1.09868	0.838
1.10868	0.836
1.11868	0.834
1.12868	0.832
1.13868	0.83
1.14868	0.828
1.15868	0.826
1.16868	0.824
1.17868	0.822
1.18868	0.82
1.19868	0.818
1.20868	0.816
1.21868	0.814
1.22868	0.812
1.23868	0.81
1.24868	0.808
1.25868	0.806
1.26868	0.804
1.27868	0.802
1.28868	0.8
0.788675	0.916667
0.798675	0.915
0.808675	0.913333
0.818675	0.911667
0.828675	0.91
0.838675	0.908333
0.848675	0.906667
0.858675	0.905
0.868675	0.903333
0.878675	0.901667
0.888675	0.9
0.898675	0.898333
0.908675	0.896667
0.918675	0.895
0.928675	0.893333
0.938675	0.891667
0.948675	0.89
0.958675	0.888333
0.968675	0.886667
0.978675	0.885
0.988675	0.883333
0.998675	0.881667
1.00868	0.88
1.01868	0.878333
1.02868	0.876667
1.03868	0.875
1.04868	0.873333
1.05868	0.871667
1.06868	0.87
1.07868	0.868333
1.08868	0.866667
1.09868	0.865
1.10868	0.863333
1.11868	0.861667
1.12868	0.86
1.13868	0.858333
1.14868	0.856667
1.15868	0.855
1.16868	0.853333
1.17868	0.851667
1.18868	0.85
1.19868	0.848333
1.20868	0.846667
1.21868	0.845
1.22868	0.843333
1.23868	0.841667
1.24868	0.84
1.25868	0.838333
1.26868	0.836667
1.27868	0.835
1.28868	0.833333
0.788675	0.933333
0.798675	0.932
0.808675	0.930667
0.818675	0.929333
0.828675	0.928
0.838675	0.926667
0.848675	0.925333
0.858675	0.924
0.868675	0.922667
0.878675	0.921333
0.888675	0.92
0.898675	0.918667
0.908675	0.917333
0.918675	0.916
0.928675	0.914667
0.938675	0.913333
0.948675	0.912
0.958675	0.910667
0.968675	0.909333
0.978675	0.908
0.988675	0.906667
0.998675	0.905333
1.00868	0.904
1.01868	0.902667
1.02868	0.901333
1.03868	0.9
1.04868	0.898667
1.05868	0.897333
1.06868	0.896
1.07868	0.894667
1.08868	0.893333
1.09868	0.892
1.10868	0.890667
1.11868	0.889333
1.12868	0.888
1.13868	0.886667
1.14868	0.885333
1.15868	0.884
1.16868	0.882667
1.17868	0.881333
1.18868	0.88
1.19868	0.878667
1.20868	0.877333
1.21868	0.876
1.22868	0.874667
1.23868	0.873333
1.24868	0.872
1.25868	0.870667
1.26868	0.869333
1.27868	0.868
1.28868	0.866667
0.788675	0.95
0.798675	0.949
0.808675	0.948
0.818675	0.947
0.828675	0.946
0.838675	0.945
0.848675	0.944
0.858675	0.943
0.868675	0.942
0.878675	0.941
0.888675	0.94
0.898675	0.939
0.908675	0.938
0.918675	0.937
0.928675	0.936
0.938675	0.935
0.948675	0.934
0.958675	0.933
0.968675	0.932
0.978675	0.931
0.988675	0.93
0.998675	0.929
1.00868	0.928
1.01868	0.927
1.02868	0.926
1.03868	0.925
1.04868	0.924
1.05868	0.923
1.06868	0.922
1.07868	0.921
1.08868	0.92
1.09868	0.919
1.10868	0.918
1.11868	0.917
1.12868	0.916
1.13868	0.915
1.14868	0.914
1.15868	0.913
1.16868	0.912
1.17868	0.911
1.18868	0.91
1.19868	0.909
1.20868	0.908
1.21868	0.907
1.22868	0.906
1.23868	0.905
1.24868	0.904
1.25868	0.903
1.26868	0.902
1.27868	0.901
1.28868	0.9
0.788675	0.966667
0.798675	0.966
0.808675	0.965333
0.818675	0.964667
0.828675	0.964
0.838675	0.963333
0.848675	0.962667
0.858675	0.962
0.868675	0.961333
0.878675	0.960667
0.888675	0.96
0.898675	0.959333
0.908675	0.958667
0.918675	0.958
0.928675	0.957333
0.938675	0.956667
0.948675	0.956
0.958675	0.955333
0.968675	0.954667
0.978675	0.954
0.988675	0.953333
0.998675	0.952667
1.00868	0.952
1.01868	0.951333
1.02868	0.950667
1.03868	0.95
1.04868	0.949333
1.05868	0.948667
1.06868	0.948
1.07868	0.947333
1.08868	0.946667
1.09868	0.946
1.10868	0.945333
1.11868	0.944667
1.12868	0.944
1.13868	0.943333
1.14868	0.942667
1.15868	0.942
1.16868	0.941333
1.17868	0.940667
1.18868	0.94
1.19868	0.939333
1.20868	0.938667
1.21868	0.938
1.22868	0.937333
1.23868	0.936667
1.24868	0.936
1.25868	0.935333
1.26868	0.934667
1.27868	0.934
1.28868	0.933333
0.788675	0.983333
0.798675	0.983
0.808675	0.982667
0.818675	0.982333
0.828675	0.982
0.838675	0.981667
0.848675	0.981333
0.858675	0.981
0.868675	0.980667
0.878675	0.980333
0.888675	0.98
0.898675	0.979667
0.908675	0.979333
0.918675	0.979
0.928675	0.978667
0.938675	0.978333
0.948675	0.978
0.958675	0.977667
0.968675	0.977333
0.978675	0.977
0.988675	0.976667
0.998675	0.976333
1.00868	0.976
1.01868	0.975667
1.02868	0.975333
1.03868	0.975
1.04868	0.974667
1.05868	0.974333
1.06868	0.974
1.07868	0.973667
1.08868	0.973333
1.09868	0.973
1.10868	0.972667
1.11868	0.972333
1.12868	0.972
1.13868	0.971667
1.14868	0.971333
1.15868	0.971
1.16868	0.970667
1.17868	0.970333
1.18868	0.97
1.19868	0.969667
1.20868	0.969333
1.21868	0.969
1.22868	0.968667
1.23868	0.968333
1.24868	0.968
1.25868	0.967667
1.26868	0.967333
1.27868	0.967
1.28868	0.966667
0.788675	1
0.798675	1
0.808675	1
0.818675	1
0.828675	1
0.838675	1
0.848675	1
0.858675	1
0.868675	1
0.878675	1
0.888675	1
0.898675	1
0.908675	1
0.918675	1
0.928675	1
0.938675	1
0.948675	1
0.958675	1
0.968675	1
0.978675	1
0.988675	1
0.998675	1
1.00868	1
1.01868	1
1.02868	1
1.03868	1
1.04868	1
1.05868	1
1.06868	1
1.07868	1
1.08868	1
1.09868	1
1.10868	1
1.11868	1
1.12868	1
1.13868	1
1.14868	1
1.15868	1
1.16868	1
1.17868	1
1.18868	1
1.19868	1
1.20868	1
1.21868	1
1.22868	1
1.23868	1
1.24868	1
1.25868	1
1.26868	1
1.27868	1
1.28868	1
