VARIABLES = X Y
ZONE I = 31, J = 51, F = POINT
0	0
0.0333333	0
0.0666667	0
0.1	0
0.133333	0
0.166667	0
0.2	0
0.233333	0
0.266667	0
0.3	0
0.333333	0
0.366667	0
0.4	0
0.433333	0
0.466667	0
0.5	0
0.533333	0
0.566667	0
0.6	0
0.633333	0
0.666667	0
0.7	0
0.733333	0
0.766667	0
0.8	0
0.833333	0
0.866667	0
0.9	0
0.933333	0
0.966667	0
1	0
0	0.0519773
0.0333333	0.0519773
0.0666667	0.0519773
0.1	0.0519773
0.133333	0.0519773
0.166667	0.0519773
0.2	0.0519773
0.233333	0.0519773
0.266667	0.0519773
0.3	0.0519773
0.333333	0.0519773
0.366667	0.0519773
0.4	0.0519773
0.433333	0.0519773
0.466667	0.0519773
0.5	0.0519773
0.533333	0.0519773
0.566667	0.0519773
0.6	0.0519773
0.633333	0.0519773
0.666667	0.0519773
0.7	0.0519773
0.733333	0.0519773
0.766667	0.0519773
0.8	0.0519773
0.833333	0.0519773
0.866667	0.0519773
0.9	0.0519773
0.933333	0.0519773
0.966667	0.0519773
1	0.0519773
0	0.0997207
0.0333333	0.0997207
0.0666667	0.0997207
0.1	0.0997207
0.133333	0.0997207
0.166667	0.0997207
0.2	0.0997207
0.233333	0.0997207
0.266667	0.0997207
0.3	0.0997207
0.333333	0.0997207
0.366667	0.0997207
0.4	0.0997207
0.433333	0.0997207
0.466667	0.0997207
0.5	0.0997207
0.533333	0.0997207
0.566667	0.0997207
0.6	0.0997207
0.633333	0.0997207
0.666667	0.0997207
0.7	0.0997207
0.733333	0.0997207
0.766667	0.0997207
0.8	0.0997207
0.833333	0.0997207
0.866667	0.0997207
0.9	0.0997207
0.933333	0.0997207
0.966667	0.0997207
1	0.0997207
0	0.143411
0.0333333	0.143411
0.0666667	0.143411
0.1	0.143411
0.133333	0.143411
0.166667	0.143411
0.2	0.143411
0.233333	0.143411
0.266667	0.143411
0.3	0.143411
0.333333	0.143411
0.366667	0.143411
0.4	0.143411
0.433333	0.143411
0.466667	0.143411
0.5	0.143411
0.533333	0.143411
0.566667	0.143411
0.6	0.143411
0.633333	0.143411
0.666667	0.143411
0.7	0.143411
0.733333	0.143411
0.766667	0.143411
0.8	0.143411
0.833333	0.143411
0.866667	0.143411
0.9	0.143411
0.933333	0.143411
0.966667	0.143411
1	0.143411
0	0.183227
0.0333333	0.183227
0.0666667	0.183227
0.1	0.183227
0.133333	0.183227
0.166667	0.183227
0.2	0.183227
0.233333	0.183227
0.266667	0.183227
0.3	0.183227
0.333333	0.183227
0.366667	0.183227
0.4	0.183227
0.433333	0.183227
0.466667	0.183227
0.5	0.183227
0.533333	0.183227
0.566667	0.183227
0.6	0.183227
0.633333	0.183227
0.666667	0.183227
0.7	0.183227
0.733333	0.183227
0.766667	0.183227
0.8	0.183227
0.833333	0.183227
0.866667	0.183227
0.9	0.183227
0.933333	0.183227
0.966667	0.183227
1	0.183227
0	0.21935
0.0333333	0.21935
0.0666667	0.21935
0.1	0.21935
0.133333	0.21935
0.166667	0.21935
0.2	0.21935
0.233333	0.21935
0.266667	0.21935
0.3	0.21935
0.333333	0.21935
0.366667	0.21935
0.4	0.21935
0.433333	0.21935
0.466667	0.21935
0.5	0.21935
0.533333	0.21935
0.566667	0.21935
0.6	0.21935
0.633333	0.21935
0.666667	0.21935
0.7	0.21935
0.733333	0.21935
0.766667	0.21935
0.8	0.21935
0.833333	0.21935
0.866667	0.21935
0.9	0.21935
0.933333	0.21935
0.966667	0.21935
1	0.21935
0	0.251959
0.0333333	0.251959
0.0666667	0.251959
0.1	0.251959
0.133333	0.251959
0.166667	0.251959
0.2	0.251959
0.233333	0.251959
0.266667	0.251959
0.3	0.251959
0.333333	0.251959
0.366667	0.251959
0.4	0.251959
0.433333	0.251959
0.466667	0.251959
0.5	0.251959
0.533333	0.251959
0.566667	0.251959
0.6	0.251959
0.633333	0.251959
0.666667	0.251959
0.7	0.251959
0.733333	0.251959
0.766667	0.251959
0.8	0.251959
0.833333	0.251959
0.866667	0.251959
0.9	0.251959
0.933333	0.251959
0.966667	0.251959
1	0.251959
0	0.281236
0.0333333	0.281236
0.0666667	0.281236
0.1	0.281236
0.133333	0.281236
0.166667	0.281236
0.2	0.281236
0.233333	0.281236
0.266667	0.281236
0.3	0.281236
0.333333	0.281236
0.366667	0.281236
0.4	0.281236
0.433333	0.281236
0.466667	0.281236
0.5	0.281236
0.533333	0.281236
0.566667	0.281236
0.6	0.281236
0.633333	0.281236
0.666667	0.281236
0.7	0.281236
0.733333	0.281236
0.766667	0.281236
0.8	0.281236
0.833333	0.281236
0.866667	0.281236
0.9	0.281236
0.933333	0.281236
0.966667	0.281236
1	0.281236
0	0.30736
0.0333333	0.30736
0.0666667	0.30736
0.1	0.30736
0.133333	0.30736
0.166667	0.30736
0.2	0.30736
0.233333	0.30736
0.266667	0.30736
0.3	0.30736
0.333333	0.30736
0.366667	0.30736
0.4	0.30736
0.433333	0.30736
0.466667	0.30736
0.5	0.30736
0.533333	0.30736
0.566667	0.30736
0.6	0.30736
0.633333	0.30736
0.666667	0.30736
0.7	0.30736
0.733333	0.30736
0.766667	0.30736
0.8	0.30736
0.833333	0.30736
0.866667	0.30736
0.9	0.30736
0.933333	0.30736
0.966667	0.30736
1	0.30736
0	0.330511
0.0333333	0.330511
0.0666667	0.330511
0.1	0.330511
0.133333	0.330511
0.166667	0.330511
0.2	0.330511
0.233333	0.330511
0.266667	0.330511
0.3	0.330511
0.333333	0.330511
0.366667	0.330511
0.4	0.330511
0.433333	0.330511
0.466667	0.330511
0.5	0.330511
0.533333	0.330511
0.566667	0.330511
0.6	0.330511
0.633333	0.330511
0.666667	0.330511
0.7	0.330511
0.733333	0.330511
0.766667	0.330511
0.8	0.330511
0.833333	0.330511
0.866667	0.330511
0.9	0.330511
0.933333	0.330511
0.966667	0.330511
1	0.330511
0	0.350869
0.0333333	0.350869
0.0666667	0.350869
0.1	0.350869
0.133333	0.350869
0.166667	0.350869
0.2	0.350869
0.233333	0.350869
0.266667	0.350869
0.3	0.350869
0.333333	0.350869
0.366667	0.350869
0.4	0.350869
0.433333	0.350869
0.466667	0.350869
0.5	0.350869
0.533333	0.350869
0.566667	0.350869
0.6	0.350869
0.633333	0.350869
0.666667	0.350869
0.7	0.350869
0.733333	0.350869
0.766667	0.350869
0.8	0.350869
0.833333	0.350869
0.866667	0.350869
0.9	0.350869
0.933333	0.350869
0.966667	0.350869
1	0.350869
0	0.368615
0.0333333	0.368615
0.0666667	0.368615
0.1	0.368615
0.133333	0.368615
0.166667	0.368615
0.2	0.368615
0.233333	0.368615
0.266667	0.368615
0.3	0.368615
0.333333	0.368615
0.366667	0.368615
0.4	0.368615
0.433333	0.368615
0.466667	0.368615
0.5	0.368615
0.533333	0.368615
0.566667	0.368615
0.6	0.368615
0.633333	0.368615
0.666667	0.368615
0.7	0.368615
0.733333	0.368615
0.766667	0.368615
0.8	0.368615
0.833333	0.368615
0.866667	0.368615
0.9	0.368615
0.933333	0.368615
0.966667	0.368615
1	0.368615
0	0.383929
0.0333333	0.383929
0.0666667	0.383929
0.1	0.383929
0.133333	0.383929
0.166667	0.383929
0.2	0.383929
0.233333	0.383929
0.266667	0.383929
0.3	0.383929
0.333333	0.383929
0.366667	0.383929
0.4	0.383929
0.433333	0.383929
0.466667	0.383929
0.5	0.383929
0.533333	0.383929
0.566667	0.383929
0.6	0.383929
0.633333	0.383929
0.666667	0.383929
0.7	0.383929
0.733333	0.383929
0.766667	0.383929
0.8	0.383929
0.833333	0.383929
0.866667	0.383929
0.9	0.383929
0.933333	0.383929
0.966667	0.383929
1	0.383929
0	0.396991
0.0333333	0.396991
0.0666667	0.396991
0.1	0.396991
0.133333	0.396991
0.166667	0.396991
0.2	0.396991
0.233333	0.396991
0.266667	0.396991
0.3	0.396991
0.333333	0.396991
0.366667	0.396991
0.4	0.396991
0.433333	0.396991
0.466667	0.396991
0.5	0.396991
0.533333	0.396991
0.566667	0.396991
0.6	0.396991
0.633333	0.396991
0.666667	0.396991
0.7	0.396991
0.733333	0.396991
0.766667	0.396991
0.8	0.396991
0.833333	0.396991
0.866667	0.396991
0.9	0.396991
0.933333	0.396991
0.966667	0.396991
1	0.396991
0	0.407981
0.0333333	0.407981
0.0666667	0.407981
0.1	0.407981
0.133333	0.407981
0.166667	0.407981
0.2	0.407981
0.233333	0.407981
0.266667	0.407981
0.3	0.407981
0.333333	0.407981
0.366667	0.407981
0.4	0.407981
0.433333	0.407981
0.466667	0.407981
0.5	0.407981
0.533333	0.407981
0.566667	0.407981
0.6	0.407981
0.633333	0.407981
0.666667	0.407981
0.7	0.407981
0.733333	0.407981
0.766667	0.407981
0.8	0.407981
0.833333	0.407981
0.866667	0.407981
0.9	0.407981
0.933333	0.407981
0.966667	0.407981
1	0.407981
0	0.41708
0.0333333	0.41708
0.0666667	0.41708
0.1	0.41708
0.133333	0.41708
0.166667	0.41708
0.2	0.41708
0.233333	0.41708
0.266667	0.41708
0.3	0.41708
0.333333	0.41708
0.366667	0.41708
0.4	0.41708
0.433333	0.41708
0.466667	0.41708
0.5	0.41708
0.533333	0.41708
0.566667	0.41708
0.6	0.41708
0.633333	0.41708
0.666667	0.41708
0.7	0.41708
0.733333	0.41708
0.766667	0.41708
0.8	0.41708
0.833333	0.41708
0.866667	0.41708
0.9	0.41708
0.933333	0.41708
0.966667	0.41708
1	0.41708
0	0.424466
0.0333333	0.424466
0.0666667	0.424466
0.1	0.424466
0.133333	0.424466
0.166667	0.424466
0.2	0.424466
0.233333	0.424466
0.266667	0.424466
0.3	0.424466
0.333333	0.424466
0.366667	0.424466
0.4	0.424466
0.433333	0.424466
0.466667	0.424466
0.5	0.424466
0.533333	0.424466
0.566667	0.424466
0.6	0.424466
0.633333	0.424466
0.666667	0.424466
0.7	0.424466
0.733333	0.424466
0.766667	0.424466
0.8	0.424466
0.833333	0.424466
0.866667	0.424466
0.9	0.424466
0.933333	0.424466
0.966667	0.424466
1	0.424466
0	0.430322
0.0333333	0.430322
0.0666667	0.430322
0.1	0.430322
0.133333	0.430322
0.166667	0.430322
0.2	0.430322
0.233333	0.430322
0.266667	0.430322
0.3	0.430322
0.333333	0.430322
0.366667	0.430322
0.4	0.430322
0.433333	0.430322
0.466667	0.430322
0.5	0.430322
0.533333	0.430322
0.566667	0.430322
0.6	0.430322
0.633333	0.430322
0.666667	0.430322
0.7	0.430322
0.733333	0.430322
0.766667	0.430322
0.8	0.430322
0.833333	0.430322
0.866667	0.430322
0.9	0.430322
0.933333	0.430322
0.966667	0.430322
1	0.430322
0	0.434826
0.0333333	0.434826
0.0666667	0.434826
0.1	0.434826
0.133333	0.434826
0.166667	0.434826
0.2	0.434826
0.233333	0.434826
0.266667	0.434826
0.3	0.434826
0.333333	0.434826
0.366667	0.434826
0.4	0.434826
0.433333	0.434826
0.466667	0.434826
0.5	0.434826
0.533333	0.434826
0.566667	0.434826
0.6	0.434826
0.633333	0.434826
0.666667	0.434826
0.7	0.434826
0.733333	0.434826
0.766667	0.434826
0.8	0.434826
0.833333	0.434826
0.866667	0.434826
0.9	0.434826
0.933333	0.434826
0.966667	0.434826
1	0.434826
0	0.438159
0.0333333	0.438159
0.0666667	0.438159
0.1	0.438159
0.133333	0.438159
0.166667	0.438159
0.2	0.438159
0.233333	0.438159
0.266667	0.438159
0.3	0.438159
0.333333	0.438159
0.366667	0.438159
0.4	0.438159
0.433333	0.438159
0.466667	0.438159
0.5	0.438159
0.533333	0.438159
0.566667	0.438159
0.6	0.438159
0.633333	0.438159
0.666667	0.438159
0.7	0.438159
0.733333	0.438159
0.766667	0.438159
0.8	0.438159
0.833333	0.438159
0.866667	0.438159
0.9	0.438159
0.933333	0.438159
0.966667	0.438159
1	0.438159
0	0.440501
0.0333333	0.440501
0.0666667	0.440501
0.1	0.440501
0.133333	0.440501
0.166667	0.440501
0.2	0.440501
0.233333	0.440501
0.266667	0.440501
0.3	0.440501
0.333333	0.440501
0.366667	0.440501
0.4	0.440501
0.433333	0.440501
0.466667	0.440501
0.5	0.440501
0.533333	0.440501
0.566667	0.440501
0.6	0.440501
0.633333	0.440501
0.666667	0.440501
0.7	0.440501
0.733333	0.440501
0.766667	0.440501
0.8	0.440501
0.833333	0.440501
0.866667	0.440501
0.9	0.440501
0.933333	0.440501
0.966667	0.440501
1	0.440501
0	0.442032
0.0333333	0.442032
0.0666667	0.442032
0.1	0.442032
0.133333	0.442032
0.166667	0.442032
0.2	0.442032
0.233333	0.442032
0.266667	0.442032
0.3	0.442032
0.333333	0.442032
0.366667	0.442032
0.4	0.442032
0.433333	0.442032
0.466667	0.442032
0.5	0.442032
0.533333	0.442032
0.566667	0.442032
0.6	0.442032
0.633333	0.442032
0.666667	0.442032
0.7	0.442032
0.733333	0.442032
0.766667	0.442032
0.8	0.442032
0.833333	0.442032
0.866667	0.442032
0.9	0.442032
0.933333	0.442032
0.966667	0.442032
1	0.442032
0	0.442933
0.0333333	0.442933
0.0666667	0.442933
0.1	0.442933
0.133333	0.442933
0.166667	0.442933
0.2	0.442933
0.233333	0.442933
0.266667	0.442933
0.3	0.442933
0.333333	0.442933
0.366667	0.442933
0.4	0.442933
0.433333	0.442933
0.466667	0.442933
0.5	0.442933
0.533333	0.442933
0.566667	0.442933
0.6	0.442933
0.633333	0.442933
0.666667	0.442933
0.7	0.442933
0.733333	0.442933
0.766667	0.442933
0.8	0.442933
0.833333	0.442933
0.866667	0.442933
0.9	0.442933
0.933333	0.442933
0.966667	0.442933
1	0.442933
0	0.443383
0.0333333	0.443383
0.0666667	0.443383
0.1	0.443383
0.133333	0.443383
0.166667	0.443383
0.2	0.443383
0.233333	0.443383
0.266667	0.443383
0.3	0.443383
0.333333	0.443383
0.366667	0.443383
0.4	0.443383
0.433333	0.443383
0.466667	0.443383
0.5	0.443383
0.533333	0.443383
0.566667	0.443383
0.6	0.443383
0.633333	0.443383
0.666667	0.443383
0.7	0.443383
0.733333	0.443383
0.766667	0.443383
0.8	0.443383
0.833333	0.443383
0.866667	0.443383
0.9	0.443383
0.933333	0.443383
0.966667	0.443383
1	0.443383
0	0.443564
0.0333333	0.443564
0.0666667	0.443564
0.1	0.443564
0.133333	0.443564
0.166667	0.443564
0.2	0.443564
0.233333	0.443564
0.266667	0.443564
0.3	0.443564
0.333333	0.443564
0.366667	0.443564
0.4	0.443564
0.433333	0.443564
0.466667	0.443564
0.5	0.443564
0.533333	0.443564
0.566667	0.443564
0.6	0.443564
0.633333	0.443564
0.666667	0.443564
0.7	0.443564
0.733333	0.443564
0.766667	0.443564
0.8	0.443564
0.833333	0.443564
0.866667	0.443564
0.9	0.443564
0.933333	0.443564
0.966667	0.443564
1	0.443564
0	0.443654
0.0333333	0.443654
0.0666667	0.443654
0.1	0.443654
0.133333	0.443654
0.166667	0.443654
0.2	0.443654
0.233333	0.443654
0.266667	0.443654
0.3	0.443654
0.333333	0.443654
0.366667	0.443654
0.4	0.443654
0.433333	0.443654
0.466667	0.443654
0.5	0.443654
0.533333	0.443654
0.566667	0.443654
0.6	0.443654
0.633333	0.443654
0.666667	0.443654
0.7	0.443654
0.733333	0.443654
0.766667	0.443654
0.8	0.443654
0.833333	0.443654
0.866667	0.443654
0.9	0.443654
0.933333	0.443654
0.966667	0.443654
1	0.443654
0	0.443834
0.0333333	0.443834
0.0666667	0.443834
0.1	0.443834
0.133333	0.443834
0.166667	0.443834
0.2	0.443834
0.233333	0.443834
0.266667	0.443834
0.3	0.443834
0.333333	0.443834
0.366667	0.443834
0.4	0.443834
0.433333	0.443834
0.466667	0.443834
0.5	0.443834
0.533333	0.443834
0.566667	0.443834
0.6	0.443834
0.633333	0.443834
0.666667	0.443834
0.7	0.443834
0.733333	0.443834
0.766667	0.443834
0.8	0.443834
0.833333	0.443834
0.866667	0.443834
0.9	0.443834
0.933333	0.443834
0.966667	0.443834
1	0.443834
0	0.444284
0.0333333	0.444284
0.0666667	0.444284
0.1	0.444284
0.133333	0.444284
0.166667	0.444284
0.2	0.444284
0.233333	0.444284
0.266667	0.444284
0.3	0.444284
0.333333	0.444284
0.366667	0.444284
0.4	0.444284
0.433333	0.444284
0.466667	0.444284
0.5	0.444284
0.533333	0.444284
0.566667	0.444284
0.6	0.444284
0.633333	0.444284
0.666667	0.444284
0.7	0.444284
0.733333	0.444284
0.766667	0.444284
0.8	0.444284
0.833333	0.444284
0.866667	0.444284
0.9	0.444284
0.933333	0.444284
0.966667	0.444284
1	0.444284
0	0.445185
0.0333333	0.445185
0.0666667	0.445185
0.1	0.445185
0.133333	0.445185
0.166667	0.445185
0.2	0.445185
0.233333	0.445185
0.266667	0.445185
0.3	0.445185
0.333333	0.445185
0.366667	0.445185
0.4	0.445185
0.433333	0.445185
0.466667	0.445185
0.5	0.445185
0.533333	0.445185
0.566667	0.445185
0.6	0.445185
0.633333	0.445185
0.666667	0.445185
0.7	0.445185
0.733333	0.445185
0.766667	0.445185
0.8	0.445185
0.833333	0.445185
0.866667	0.445185
0.9	0.445185
0.933333	0.445185
0.966667	0.445185
1	0.445185
0	0.446717
0.0333333	0.446717
0.0666667	0.446717
0.1	0.446717
0.133333	0.446717
0.166667	0.446717
0.2	0.446717
0.233333	0.446717
0.266667	0.446717
0.3	0.446717
0.333333	0.446717
0.366667	0.446717
0.4	0.446717
0.433333	0.446717
0.466667	0.446717
0.5	0.446717
0.533333	0.446717
0.566667	0.446717
0.6	0.446717
0.633333	0.446717
0.666667	0.446717
0.7	0.446717
0.733333	0.446717
0.766667	0.446717
0.8	0.446717
0.833333	0.446717
0.866667	0.446717
0.9	0.446717
0.933333	0.446717
0.966667	0.446717
1	0.446717
0	0.449059
0.0333333	0.449059
0.0666667	0.449059
0.1	0.449059
0.133333	0.449059
0.166667	0.449059
0.2	0.449059
0.233333	0.449059
0.266667	0.449059
0.3	0.449059
0.333333	0.449059
0.366667	0.449059
0.4	0.449059
0.433333	0.449059
0.466667	0.449059
0.5	0.449059
0.533333	0.449059
0.566667	0.449059
0.6	0.449059
0.633333	0.449059
0.666667	0.449059
0.7	0.449059
0.733333	0.449059
0.766667	0.449059
0.8	0.449059
0.833333	0.449059
0.866667	0.449059
0.9	0.449059
0.933333	0.449059
0.966667	0.449059
1	0.449059
0	0.452392
0.0333333	0.452392
0.0666667	0.452392
0.1	0.452392
0.133333	0.452392
0.166667	0.452392
0.2	0.452392
0.233333	0.452392
0.266667	0.452392
0.3	0.452392
0.333333	0.452392
0.366667	0.452392
0.4	0.452392
0.433333	0.452392
0.466667	0.452392
0.5	0.452392
0.533333	0.452392
0.566667	0.452392
0.6	0.452392
0.633333	0.452392
0.666667	0.452392
0.7	0.452392
0.733333	0.452392
0.766667	0.452392
0.8	0.452392
0.833333	0.452392
0.866667	0.452392
0.9	0.452392
0.933333	0.452392
0.966667	0.452392
1	0.452392
0	0.456896
0.0333333	0.456896
0.0666667	0.456896
0.1	0.456896
0.133333	0.456896
0.166667	0.456896
0.2	0.456896
0.233333	0.456896
0.266667	0.456896
0.3	0.456896
0.333333	0.456896
0.366667	0.456896
0.4	0.456896
0.433333	0.456896
0.466667	0.456896
0.5	0.456896
0.533333	0.456896
0.566667	0.456896
0.6	0.456896
0.633333	0.456896
0.666667	0.456896
0.7	0.456896
0.733333	0.456896
0.766667	0.456896
0.8	0.456896
0.833333	0.456896
0.866667	0.456896
0.9	0.456896
0.933333	0.456896
0.966667	0.456896
1	0.456896
0	0.462751
0.0333333	0.462751
0.0666667	0.462751
0.1	0.462751
0.133333	0.462751
0.166667	0.462751
0.2	0.462751
0.233333	0.462751
0.266667	0.462751
0.3	0.462751
0.333333	0.462751
0.366667	0.462751
0.4	0.462751
0.433333	0.462751
0.466667	0.462751
0.5	0.462751
0.533333	0.462751
0.566667	0.462751
0.6	0.462751
0.633333	0.462751
0.666667	0.462751
0.7	0.462751
0.733333	0.462751
0.766667	0.462751
0.8	0.462751
0.833333	0.462751
0.866667	0.462751
0.9	0.462751
0.933333	0.462751
0.966667	0.462751
1	0.462751
0	0.470138
0.0333333	0.470138
0.0666667	0.470138
0.1	0.470138
0.133333	0.470138
0.166667	0.470138
0.2	0.470138
0.233333	0.470138
0.266667	0.470138
0.3	0.470138
0.333333	0.470138
0.366667	0.470138
0.4	0.470138
0.433333	0.470138
0.466667	0.470138
0.5	0.470138
0.533333	0.470138
0.566667	0.470138
0.6	0.470138
0.633333	0.470138
0.666667	0.470138
0.7	0.470138
0.733333	0.470138
0.766667	0.470138
0.8	0.470138
0.833333	0.470138
0.866667	0.470138
0.9	0.470138
0.933333	0.470138
0.966667	0.470138
1	0.470138
0	0.479236
0.0333333	0.479236
0.0666667	0.479236
0.1	0.479236
0.133333	0.479236
0.166667	0.479236
0.2	0.479236
0.233333	0.479236
0.266667	0.479236
0.3	0.479236
0.333333	0.479236
0.366667	0.479236
0.4	0.479236
0.433333	0.479236
0.466667	0.479236
0.5	0.479236
0.533333	0.479236
0.566667	0.479236
0.6	0.479236
0.633333	0.479236
0.666667	0.479236
0.7	0.479236
0.733333	0.479236
0.766667	0.479236
0.8	0.479236
0.833333	0.479236
0.866667	0.479236
0.9	0.479236
0.933333	0.479236
0.966667	0.479236
1	0.479236
0	0.490226
0.0333333	0.490226
0.0666667	0.490226
0.1	0.490226
0.133333	0.490226
0.166667	0.490226
0.2	0.490226
0.233333	0.490226
0.266667	0.490226
0.3	0.490226
0.333333	0.490226
0.366667	0.490226
0.4	0.490226
0.433333	0.490226
0.466667	0.490226
0.5	0.490226
0.533333	0.490226
0.566667	0.490226
0.6	0.490226
0.633333	0.490226
0.666667	0.490226
0.7	0.490226
0.733333	0.490226
0.766667	0.490226
0.8	0.490226
0.833333	0.490226
0.866667	0.490226
0.9	0.490226
0.933333	0.490226
0.966667	0.490226
1	0.490226
0	0.503288
0.0333333	0.503288
0.0666667	0.503288
0.1	0.503288
0.133333	0.503288
0.166667	0.503288
0.2	0.503288
0.233333	0.503288
0.266667	0.503288
0.3	0.503288
0.333333	0.503288
0.366667	0.503288
0.4	0.503288
0.433333	0.503288
0.466667	0.503288
0.5	0.503288
0.533333	0.503288
0.566667	0.503288
0.6	0.503288
0.633333	0.503288
0.666667	0.503288
0.7	0.503288
0.733333	0.503288
0.766667	0.503288
0.8	0.503288
0.833333	0.503288
0.866667	0.503288
0.9	0.503288
0.933333	0.503288
0.966667	0.503288
1	0.503288
0	0.518602
0.0333333	0.518602
0.0666667	0.518602
0.1	0.518602
0.133333	0.518602
0.166667	0.518602
0.2	0.518602
0.233333	0.518602
0.266667	0.518602
0.3	0.518602
0.333333	0.518602
0.366667	0.518602
0.4	0.518602
0.433333	0.518602
0.466667	0.518602
0.5	0.518602
0.533333	0.518602
0.566667	0.518602
0.6	0.518602
0.633333	0.518602
0.666667	0.518602
0.7	0.518602
0.733333	0.518602
0.766667	0.518602
0.8	0.518602
0.833333	0.518602
0.866667	0.518602
0.9	0.518602
0.933333	0.518602
0.966667	0.518602
1	0.518602
0	0.536348
0.0333333	0.536348
0.0666667	0.536348
0.1	0.536348
0.133333	0.536348
0.166667	0.536348
0.2	0.536348
0.233333	0.536348
0.266667	0.536348
0.3	0.536348
0.333333	0.536348
0.366667	0.536348
0.4	0.536348
0.433333	0.536348
0.466667	0.536348
0.5	0.536348
0.533333	0.536348
0.566667	0.536348
0.6	0.536348
0.633333	0.536348
0.666667	0.536348
0.7	0.536348
0.733333	0.536348
0.766667	0.536348
0.8	0.536348
0.833333	0.536348
0.866667	0.536348
0.9	0.536348
0.933333	0.536348
0.966667	0.536348
1	0.536348
0	0.556707
0.0333333	0.556707
0.0666667	0.556707
0.1	0.556707
0.133333	0.556707
0.166667	0.556707
0.2	0.556707
0.233333	0.556707
0.266667	0.556707
0.3	0.556707
0.333333	0.556707
0.366667	0.556707
0.4	0.556707
0.433333	0.556707
0.466667	0.556707
0.5	0.556707
0.533333	0.556707
0.566667	0.556707
0.6	0.556707
0.633333	0.556707
0.666667	0.556707
0.7	0.556707
0.733333	0.556707
0.766667	0.556707
0.8	0.556707
0.833333	0.556707
0.866667	0.556707
0.9	0.556707
0.933333	0.556707
0.966667	0.556707
1	0.556707
0	0.579858
0.0333333	0.579858
0.0666667	0.579858
0.1	0.579858
0.133333	0.579858
0.166667	0.579858
0.2	0.579858
0.233333	0.579858
0.266667	0.579858
0.3	0.579858
0.333333	0.579858
0.366667	0.579858
0.4	0.579858
0.433333	0.579858
0.466667	0.579858
0.5	0.579858
0.533333	0.579858
0.566667	0.579858
0.6	0.579858
0.633333	0.579858
0.666667	0.579858
0.7	0.579858
0.733333	0.579858
0.766667	0.579858
0.8	0.579858
0.833333	0.579858
0.866667	0.579858
0.9	0.579858
0.933333	0.579858
0.966667	0.579858
1	0.579858
0	0.605981
0.0333333	0.605981
0.0666667	0.605981
0.1	0.605981
0.133333	0.605981
0.166667	0.605981
0.2	0.605981
0.233333	0.605981
0.266667	0.605981
0.3	0.605981
0.333333	0.605981
0.366667	0.605981
0.4	0.605981
0.433333	0.605981
0.466667	0.605981
0.5	0.605981
0.533333	0.605981
0.566667	0.605981
0.6	0.605981
0.633333	0.605981
0.666667	0.605981
0.7	0.605981
0.733333	0.605981
0.766667	0.605981
0.8	0.605981
0.833333	0.605981
0.866667	0.605981
0.9	0.605981
0.933333	0.605981
0.966667	0.605981
1	0.605981
0	0.635258
0.0333333	0.635258
0.0666667	0.635258
0.1	0.635258
0.133333	0.635258
0.166667	0.635258
0.2	0.635258
0.233333	0.635258
0.266667	0.635258
0.3	0.635258
0.333333	0.635258
0.366667	0.635258
0.4	0.635258
0.433333	0.635258
0.466667	0.635258
0.5	0.635258
0.533333	0.635258
0.566667	0.635258
0.6	0.635258
0.633333	0.635258
0.666667	0.635258
0.7	0.635258
0.733333	0.635258
0.766667	0.635258
0.8	0.635258
0.833333	0.635258
0.866667	0.635258
0.9	0.635258
0.933333	0.635258
0.966667	0.635258
1	0.635258
0	0.667868
0.0333333	0.667868
0.0666667	0.667868
0.1	0.667868
0.133333	0.667868
0.166667	0.667868
0.2	0.667868
0.233333	0.667868
0.266667	0.667868
0.3	0.667868
0.333333	0.667868
0.366667	0.667868
0.4	0.667868
0.433333	0.667868
0.466667	0.667868
0.5	0.667868
0.533333	0.667868
0.566667	0.667868
0.6	0.667868
0.633333	0.667868
0.666667	0.667868
0.7	0.667868
0.733333	0.667868
0.766667	0.667868
0.8	0.667868
0.833333	0.667868
0.866667	0.667868
0.9	0.667868
0.933333	0.667868
0.966667	0.667868
1	0.667868
0	0.703991
0.0333333	0.703991
0.0666667	0.703991
0.1	0.703991
0.133333	0.703991
0.166667	0.703991
0.2	0.703991
0.233333	0.703991
0.266667	0.703991
0.3	0.703991
0.333333	0.703991
0.366667	0.703991
0.4	0.703991
0.433333	0.703991
0.466667	0.703991
0.5	0.703991
0.533333	0.703991
0.566667	0.703991
0.6	0.703991
0.633333	0.703991
0.666667	0.703991
0.7	0.703991
0.733333	0.703991
0.766667	0.703991
0.8	0.703991
0.833333	0.703991
0.866667	0.703991
0.9	0.703991
0.933333	0.703991
0.966667	0.703991
1	0.703991
0	0.743807
0.0333333	0.743807
0.0666667	0.743807
0.1	0.743807
0.133333	0.743807
0.166667	0.743807
0.2	0.743807
0.233333	0.743807
0.266667	0.743807
0.3	0.743807
0.333333	0.743807
0.366667	0.743807
0.4	0.743807
0.433333	0.743807
0.466667	0.743807
0.5	0.743807
0.533333	0.743807
0.566667	0.743807
0.6	0.743807
0.633333	0.743807
0.666667	0.743807
0.7	0.743807
0.733333	0.743807
0.766667	0.743807
0.8	0.743807
0.833333	0.743807
0.866667	0.743807
0.9	0.743807
0.933333	0.743807
0.966667	0.743807
1	0.743807
0	0.787497
0.0333333	0.787497
0.0666667	0.787497
0.1	0.787497
0.133333	0.787497
0.166667	0.787497
0.2	0.787497
0.233333	0.787497
0.266667	0.787497
0.3	0.787497
0.333333	0.787497
0.366667	0.787497
0.4	0.787497
0.433333	0.787497
0.466667	0.787497
0.5	0.787497
0.533333	0.787497
0.566667	0.787497
0.6	0.787497
0.633333	0.787497
0.666667	0.787497
0.7	0.787497
0.733333	0.787497
0.766667	0.787497
0.8	0.787497
0.833333	0.787497
0.866667	0.787497
0.9	0.787497
0.933333	0.787497
0.966667	0.787497
1	0.787497
0	0.83524
0.0333333	0.83524
0.0666667	0.83524
0.1	0.83524
0.133333	0.83524
0.166667	0.83524
0.2	0.83524
0.233333	0.83524
0.266667	0.83524
0.3	0.83524
0.333333	0.83524
0.366667	0.83524
0.4	0.83524
0.433333	0.83524
0.466667	0.83524
0.5	0.83524
0.533333	0.83524
0.566667	0.83524
0.6	0.83524
0.633333	0.83524
0.666667	0.83524
0.7	0.83524
0.733333	0.83524
0.766667	0.83524
0.8	0.83524
0.833333	0.83524
0.866667	0.83524
0.9	0.83524
0.933333	0.83524
0.966667	0.83524
1	0.83524
0	0.887217
0.0333333	0.887217
0.0666667	0.887217
0.1	0.887217
0.133333	0.887217
0.166667	0.887217
0.2	0.887217
0.233333	0.887217
0.266667	0.887217
0.3	0.887217
0.333333	0.887217
0.366667	0.887217
0.4	0.887217
0.433333	0.887217
0.466667	0.887217
0.5	0.887217
0.533333	0.887217
0.566667	0.887217
0.6	0.887217
0.633333	0.887217
0.666667	0.887217
0.7	0.887217
0.733333	0.887217
0.766667	0.887217
0.8	0.887217
0.833333	0.887217
0.866667	0.887217
0.9	0.887217
0.933333	0.887217
0.966667	0.887217
1	0.887217
0	0.943609
0.0333333	0.943609
0.0666667	0.943609
0.1	0.943609
0.133333	0.943609
0.166667	0.943609
0.2	0.943609
0.233333	0.943609
0.266667	0.943609
0.3	0.943609
0.333333	0.943609
0.366667	0.943609
0.4	0.943609
0.433333	0.943609
0.466667	0.943609
0.5	0.943609
0.533333	0.943609
0.566667	0.943609
0.6	0.943609
0.633333	0.943609
0.666667	0.943609
0.7	0.943609
0.733333	0.943609
0.766667	0.943609
0.8	0.943609
0.833333	0.943609
0.866667	0.943609
0.9	0.943609
0.933333	0.943609
0.966667	0.943609
1	0.943609
