VARIABLES = X Y
ZONE I = 31, J = 31, F = POINT
0	0
0.166667	0
0.333333	0
0.5	0
0.666667	0
0.833333	0
1	0
1.16667	0
1.33333	0
1.5	0
1.66667	0
1.83333	0
2	0
2.16667	0
2.33333	0
2.5	0
2.66667	0
2.83333	0
3	0
3.16667	0
3.33333	0
3.5	0
3.66667	0
3.83333	0
4	0
4.16667	0
4.33333	0
4.5	0
4.66667	0
4.83333	0
5	0
0	0
0.163025	0.0346519
0.326049	0.0693039
0.489074	0.103956
0.652098	0.138608
0.815123	0.17326
0.978148	0.207912
1.14117	0.242564
1.3042	0.277216
1.46722	0.311868
1.63025	0.346519
1.79327	0.381171
1.9563	0.415823
2.11932	0.450475
2.28234	0.485127
2.44537	0.519779
2.60839	0.554431
2.77142	0.589083
2.93444	0.623735
3.09747	0.658387
3.26049	0.693039
3.42352	0.727691
3.58654	0.762343
3.74957	0.796995
3.91259	0.831647
4.07562	0.866299
4.23864	0.900951
4.40166	0.935603
4.56469	0.970255
4.72771	1.00491
4.89074	1.03956
0	0
0.152258	0.0677894
0.304515	0.135579
0.456773	0.203368
0.60903	0.271158
0.761288	0.338947
0.913545	0.406737
1.0658	0.474526
1.21806	0.542316
1.37032	0.610105
1.52258	0.677894
1.67483	0.745684
1.82709	0.813473
1.97935	0.881263
2.13161	0.949052
2.28386	1.01684
2.43612	1.08463
2.58838	1.15242
2.74064	1.22021
2.89289	1.288
3.04515	1.35579
3.19741	1.42358
3.34967	1.49137
3.50192	1.55916
3.65418	1.62695
3.80644	1.69474
3.9587	1.76253
4.11095	1.83031
4.26321	1.8981
4.41547	1.96589
4.56773	2.03368
0	0
0.134836	0.0979642
0.269672	0.195928
0.404508	0.293893
0.539345	0.391857
0.674181	0.489821
0.809017	0.587785
0.943853	0.685749
1.07869	0.783714
1.21353	0.881678
1.34836	0.979642
1.4832	1.07761
1.61803	1.17557
1.75287	1.27353
1.88771	1.3715
2.02254	1.46946
2.15738	1.56743
2.29221	1.66539
2.42705	1.76336
2.56189	1.86132
2.69672	1.95928
2.83156	2.05725
2.9664	2.15521
3.10123	2.25318
3.23607	2.35114
3.3709	2.44911
3.50574	2.54707
3.64058	2.64503
3.77541	2.743
3.91025	2.84096
4.04508	2.93893
0	0
0.111522	0.123857
0.223044	0.247715
0.334565	0.371572
0.446087	0.49543
0.557609	0.619287
0.669131	0.743145
0.780652	0.867002
0.892174	0.99086
1.0037	1.11472
1.11522	1.23857
1.22674	1.36243
1.33826	1.48629
1.44978	1.61015
1.5613	1.734
1.67283	1.85786
1.78435	1.98172
1.89587	2.10558
2.00739	2.22943
2.11891	2.35329
2.23044	2.47715
2.34196	2.60101
2.45348	2.72486
2.565	2.84872
2.67652	2.97258
2.78804	3.09644
2.89957	3.22029
3.01109	3.34415
3.12261	3.46801
3.23413	3.59187
3.34565	3.71572
0	0
0.0833333	0.144338
0.166667	0.288675
0.25	0.433013
0.333333	0.57735
0.416667	0.721688
0.5	0.866025
0.583333	1.01036
0.666667	1.1547
0.75	1.29904
0.833333	1.44338
0.916667	1.58771
1	1.73205
1.08333	1.87639
1.16667	2.02073
1.25	2.16506
1.33333	2.3094
1.41667	2.45374
1.5	2.59808
1.58333	2.74241
1.66667	2.88675
1.75	3.03109
1.83333	3.17543
1.91667	3.31976
2	3.4641
2.08333	3.60844
2.16667	3.75278
2.25	3.89711
2.33333	4.04145
2.41667	4.18579
2.5	4.33013
0	0
0.0515028	0.158509
0.103006	0.317019
0.154508	0.475528
0.206011	0.634038
0.257514	0.792547
0.309017	0.951057
0.36052	1.10957
0.412023	1.26808
0.463525	1.42658
0.515028	1.58509
0.566531	1.7436
0.618034	1.90211
0.669537	2.06062
0.72104	2.21913
0.772542	2.37764
0.824045	2.53615
0.875548	2.69466
0.927051	2.85317
0.978554	3.01168
1.03006	3.17019
1.08156	3.3287
1.13306	3.48721
1.18457	3.64572
1.23607	3.80423
1.28757	3.96274
1.33907	4.12124
1.39058	4.27975
1.44208	4.43826
1.49358	4.59677
1.54508	4.75528
0	0
0.0174214	0.165754
0.0348428	0.331507
0.0522642	0.497261
0.0696856	0.663015
0.0871071	0.828768
0.104528	0.994522
0.12195	1.16028
0.139371	1.32603
0.156793	1.49178
0.174214	1.65754
0.191636	1.82329
0.209057	1.98904
0.226478	2.1548
0.2439	2.32055
0.261321	2.4863
0.278743	2.65206
0.296164	2.81781
0.313585	2.98357
0.331007	3.14932
0.348428	3.31507
0.36585	3.48083
0.383271	3.64658
0.400692	3.81233
0.418114	3.97809
0.435535	4.14384
0.452957	4.30959
0.470378	4.47535
0.487799	4.6411
0.505221	4.80686
0.522642	4.97261
-0	0
-0.0174214	0.165754
-0.0348428	0.331507
-0.0522642	0.497261
-0.0696856	0.663015
-0.0871071	0.828768
-0.104528	0.994522
-0.12195	1.16028
-0.139371	1.32603
-0.156793	1.49178
-0.174214	1.65754
-0.191636	1.82329
-0.209057	1.98904
-0.226478	2.1548
-0.2439	2.32055
-0.261321	2.4863
-0.278743	2.65206
-0.296164	2.81781
-0.313585	2.98357
-0.331007	3.14932
-0.348428	3.31507
-0.36585	3.48083
-0.383271	3.64658
-0.400692	3.81233
-0.418114	3.97809
-0.435535	4.14384
-0.452957	4.30959
-0.470378	4.47535
-0.487799	4.6411
-0.505221	4.80686
-0.522642	4.97261
-0	0
-0.0515028	0.158509
-0.103006	0.317019
-0.154508	0.475528
-0.206011	0.634038
-0.257514	0.792547
-0.309017	0.951057
-0.36052	1.10957
-0.412023	1.26808
-0.463525	1.42658
-0.515028	1.58509
-0.566531	1.7436
-0.618034	1.90211
-0.669537	2.06062
-0.72104	2.21913
-0.772542	2.37764
-0.824045	2.53615
-0.875548	2.69466
-0.927051	2.85317
-0.978554	3.01168
-1.03006	3.17019
-1.08156	3.3287
-1.13306	3.48721
-1.18457	3.64572
-1.23607	3.80423
-1.28757	3.96274
-1.33907	4.12124
-1.39058	4.27975
-1.44208	4.43826
-1.49358	4.59677
-1.54508	4.75528
-0	0
-0.0833333	0.144338
-0.166667	0.288675
-0.25	0.433013
-0.333333	0.57735
-0.416667	0.721688
-0.5	0.866025
-0.583333	1.01036
-0.666667	1.1547
-0.75	1.29904
-0.833333	1.44338
-0.916667	1.58771
-1	1.73205
-1.08333	1.87639
-1.16667	2.02073
-1.25	2.16506
-1.33333	2.3094
-1.41667	2.45374
-1.5	2.59808
-1.58333	2.74241
-1.66667	2.88675
-1.75	3.03109
-1.83333	3.17543
-1.91667	3.31976
-2	3.4641
-2.08333	3.60844
-2.16667	3.75278
-2.25	3.89711
-2.33333	4.04145
-2.41667	4.18579
-2.5	4.33013
-0	0
-0.111522	0.123857
-0.223044	0.247715
-0.334565	0.371572
-0.446087	0.49543
-0.557609	0.619287
-0.669131	0.743145
-0.780652	0.867002
-0.892174	0.99086
-1.0037	1.11472
-1.11522	1.23857
-1.22674	1.36243
-1.33826	1.48629
-1.44978	1.61015
-1.5613	1.734
-1.67283	1.85786
-1.78435	1.98172
-1.89587	2.10558
-2.00739	2.22943
-2.11891	2.35329
-2.23044	2.47715
-2.34196	2.60101
-2.45348	2.72486
-2.565	2.84872
-2.67652	2.97258
-2.78804	3.09644
-2.89957	3.22029
-3.01109	3.34415
-3.12261	3.46801
-3.23413	3.59187
-3.34565	3.71572
-0	0
-0.134836	0.0979642
-0.269672	0.195928
-0.404508	0.293893
-0.539345	0.391857
-0.674181	0.489821
-0.809017	0.587785
-0.943853	0.685749
-1.07869	0.783714
-1.21353	0.881678
-1.34836	0.979642
-1.4832	1.07761
-1.61803	1.17557
-1.75287	1.27353
-1.88771	1.3715
-2.02254	1.46946
-2.15738	1.56743
-2.29221	1.66539
-2.42705	1.76336
-2.56189	1.86132
-2.69672	1.95928
-2.83156	2.05725
-2.9664	2.15521
-3.10123	2.25318
-3.23607	2.35114
-3.3709	2.44911
-3.50574	2.54707
-3.64058	2.64503
-3.77541	2.743
-3.91025	2.84096
-4.04508	2.93893
-0	0
-0.152258	0.0677894
-0.304515	0.135579
-0.456773	0.203368
-0.60903	0.271158
-0.761288	0.338947
-0.913545	0.406737
-1.0658	0.474526
-1.21806	0.542316
-1.37032	0.610105
-1.52258	0.677894
-1.67483	0.745684
-1.82709	0.813473
-1.97935	0.881263
-2.13161	0.949052
-2.28386	1.01684
-2.43612	1.08463
-2.58838	1.15242
-2.74064	1.22021
-2.89289	1.288
-3.04515	1.35579
-3.19741	1.42358
-3.34967	1.49137
-3.50192	1.55916
-3.65418	1.62695
-3.80644	1.69474
-3.9587	1.76253
-4.11095	1.83031
-4.26321	1.8981
-4.41547	1.96589
-4.56773	2.03368
-0	0
-0.163025	0.0346519
-0.326049	0.0693039
-0.489074	0.103956
-0.652098	0.138608
-0.815123	0.17326
-0.978148	0.207912
-1.14117	0.242564
-1.3042	0.277216
-1.46722	0.311868
-1.63025	0.346519
-1.79327	0.381171
-1.9563	0.415823
-2.11932	0.450475
-2.28234	0.485127
-2.44537	0.519779
-2.60839	0.554431
-2.77142	0.589083
-2.93444	0.623735
-3.09747	0.658387
-3.26049	0.693039
-3.42352	0.727691
-3.58654	0.762343
-3.74957	0.796995
-3.91259	0.831647
-4.07562	0.866299
-4.23864	0.900951
-4.40166	0.935603
-4.56469	0.970255
-4.72771	1.00491
-4.89074	1.03956
-0	0
-0.166667	2.04108e-17
-0.333333	4.08216e-17
-0.5	6.12323e-17
-0.666667	8.16431e-17
-0.833333	1.02054e-16
-1	1.22465e-16
-1.16667	1.42875e-16
-1.33333	1.63286e-16
-1.5	1.83697e-16
-1.66667	2.04108e-16
-1.83333	2.24519e-16
-2	2.44929e-16
-2.16667	2.6534e-16
-2.33333	2.85751e-16
-2.5	3.06162e-16
-2.66667	3.26572e-16
-2.83333	3.46983e-16
-3	3.67394e-16
-3.16667	3.87805e-16
-3.33333	4.08216e-16
-3.5	4.28626e-16
-3.66667	4.49037e-16
-3.83333	4.69448e-16
-4	4.89859e-16
-4.16667	5.10269e-16
-4.33333	5.3068e-16
-4.5	5.51091e-16
-4.66667	5.71502e-16
-4.83333	5.91913e-16
-5	6.12323e-16
-0	-0
-0.163025	-0.0346519
-0.326049	-0.0693039
-0.489074	-0.103956
-0.652098	-0.138608
-0.815123	-0.17326
-0.978148	-0.207912
-1.14117	-0.242564
-1.3042	-0.277216
-1.46722	-0.311868
-1.63025	-0.346519
-1.79327	-0.381171
-1.9563	-0.415823
-2.11932	-0.450475
-2.28234	-0.485127
-2.44537	-0.519779
-2.60839	-0.554431
-2.77142	-0.589083
-2.93444	-0.623735
-3.09747	-0.658387
-3.26049	-0.693039
-3.42352	-0.727691
-3.58654	-0.762343
-3.74957	-0.796995
-3.91259	-0.831647
-4.07562	-0.866299
-4.23864	-0.900951
-4.40166	-0.935603
-4.56469	-0.970255
-4.72771	-1.00491
-4.89074	-1.03956
-0	-0
-0.152258	-0.0677894
-0.304515	-0.135579
-0.456773	-0.203368
-0.60903	-0.271158
-0.761288	-0.338947
-0.913545	-0.406737
-1.0658	-0.474526
-1.21806	-0.542316
-1.37032	-0.610105
-1.52258	-0.677894
-1.67483	-0.745684
-1.82709	-0.813473
-1.97935	-0.881263
-2.13161	-0.949052
-2.28386	-1.01684
-2.43612	-1.08463
-2.58838	-1.15242
-2.74064	-1.22021
-2.89289	-1.288
-3.04515	-1.35579
-3.19741	-1.42358
-3.34967	-1.49137
-3.50192	-1.55916
-3.65418	-1.62695
-3.80644	-1.69474
-3.9587	-1.76253
-4.11095	-1.83031
-4.26321	-1.8981
-4.41547	-1.96589
-4.56773	-2.03368
-0	-0
-0.134836	-0.0979642
-0.269672	-0.195928
-0.404508	-0.293893
-0.539345	-0.391857
-0.674181	-0.489821
-0.809017	-0.587785
-0.943853	-0.685749
-1.07869	-0.783714
-1.21353	-0.881678
-1.34836	-0.979642
-1.4832	-1.07761
-1.61803	-1.17557
-1.75287	-1.27353
-1.88771	-1.3715
-2.02254	-1.46946
-2.15738	-1.56743
-2.29221	-1.66539
-2.42705	-1.76336
-2.56189	-1.86132
-2.69672	-1.95928
-2.83156	-2.05725
-2.9664	-2.15521
-3.10123	-2.25318
-3.23607	-2.35114
-3.3709	-2.44911
-3.50574	-2.54707
-3.64058	-2.64503
-3.77541	-2.743
-3.91025	-2.84096
-4.04508	-2.93893
-0	-0
-0.111522	-0.123857
-0.223044	-0.247715
-0.334565	-0.371572
-0.446087	-0.49543
-0.557609	-0.619287
-0.669131	-0.743145
-0.780652	-0.867002
-0.892174	-0.99086
-1.0037	-1.11472
-1.11522	-1.23857
-1.22674	-1.36243
-1.33826	-1.48629
-1.44978	-1.61015
-1.5613	-1.734
-1.67283	-1.85786
-1.78435	-1.98172
-1.89587	-2.10558
-2.00739	-2.22943
-2.11891	-2.35329
-2.23044	-2.47715
-2.34196	-2.60101
-2.45348	-2.72486
-2.565	-2.84872
-2.67652	-2.97258
-2.78804	-3.09644
-2.89957	-3.22029
-3.01109	-3.34415
-3.12261	-3.46801
-3.23413	-3.59187
-3.34565	-3.71572
-0	-0
-0.0833333	-0.144338
-0.166667	-0.288675
-0.25	-0.433013
-0.333333	-0.57735
-0.416667	-0.721688
-0.5	-0.866025
-0.583333	-1.01036
-0.666667	-1.1547
-0.75	-1.29904
-0.833333	-1.44338
-0.916667	-1.58771
-1	-1.73205
-1.08333	-1.87639
-1.16667	-2.02073
-1.25	-2.16506
-1.33333	-2.3094
-1.41667	-2.45374
-1.5	-2.59808
-1.58333	-2.74241
-1.66667	-2.88675
-1.75	-3.03109
-1.83333	-3.17543
-1.91667	-3.31976
-2	-3.4641
-2.08333	-3.60844
-2.16667	-3.75278
-2.25	-3.89711
-2.33333	-4.04145
-2.41667	-4.18579
-2.5	-4.33013
-0	-0
-0.0515028	-0.158509
-0.103006	-0.317019
-0.154508	-0.475528
-0.206011	-0.634038
-0.257514	-0.792547
-0.309017	-0.951057
-0.36052	-1.10957
-0.412023	-1.26808
-0.463525	-1.42658
-0.515028	-1.58509
-0.566531	-1.7436
-0.618034	-1.90211
-0.669537	-2.06062
-0.72104	-2.21913
-0.772542	-2.37764
-0.824045	-2.53615
-0.875548	-2.69466
-0.927051	-2.85317
-0.978554	-3.01168
-1.03006	-3.17019
-1.08156	-3.3287
-1.13306	-3.48721
-1.18457	-3.64572
-1.23607	-3.80423
-1.28757	-3.96274
-1.33907	-4.12124
-1.39058	-4.27975
-1.44208	-4.43826
-1.49358	-4.59677
-1.54508	-4.75528
-0	-0
-0.0174214	-0.165754
-0.0348428	-0.331507
-0.0522642	-0.497261
-0.0696856	-0.663015
-0.0871071	-0.828768
-0.104528	-0.994522
-0.12195	-1.16028
-0.139371	-1.32603
-0.156793	-1.49178
-0.174214	-1.65754
-0.191636	-1.82329
-0.209057	-1.98904
-0.226478	-2.1548
-0.2439	-2.32055
-0.261321	-2.4863
-0.278743	-2.65206
-0.296164	-2.81781
-0.313585	-2.98357
-0.331007	-3.14932
-0.348428	-3.31507
-0.36585	-3.48083
-0.383271	-3.64658
-0.400692	-3.81233
-0.418114	-3.97809
-0.435535	-4.14384
-0.452957	-4.30959
-0.470378	-4.47535
-0.487799	-4.6411
-0.505221	-4.80686
-0.522642	-4.97261
0	-0
0.0174214	-0.165754
0.0348428	-0.331507
0.0522642	-0.497261
0.0696856	-0.663015
0.0871071	-0.828768
0.104528	-0.994522
0.12195	-1.16028
0.139371	-1.32603
0.156793	-1.49178
0.174214	-1.65754
0.191636	-1.82329
0.209057	-1.98904
0.226478	-2.1548
0.2439	-2.32055
0.261321	-2.4863
0.278743	-2.65206
0.296164	-2.81781
0.313585	-2.98357
0.331007	-3.14932
0.348428	-3.31507
0.36585	-3.48083
0.383271	-3.64658
0.400692	-3.81233
0.418114	-3.97809
0.435535	-4.14384
0.452957	-4.30959
0.470378	-4.47535
0.487799	-4.6411
0.505221	-4.80686
0.522642	-4.97261
0	-0
0.0515028	-0.158509
0.103006	-0.317019
0.154508	-0.475528
0.206011	-0.634038
0.257514	-0.792547
0.309017	-0.951057
0.36052	-1.10957
0.412023	-1.26808
0.463525	-1.42658
0.515028	-1.58509
0.566531	-1.7436
0.618034	-1.90211
0.669537	-2.06062
0.72104	-2.21913
0.772542	-2.37764
0.824045	-2.53615
0.875548	-2.69466
0.927051	-2.85317
0.978554	-3.01168
1.03006	-3.17019
1.08156	-3.3287
1.13306	-3.48721
1.18457	-3.64572
1.23607	-3.80423
1.28757	-3.96274
1.33907	-4.12124
1.39058	-4.27975
1.44208	-4.43826
1.49358	-4.59677
1.54508	-4.75528
0	-0
0.0833333	-0.144338
0.166667	-0.288675
0.25	-0.433013
0.333333	-0.57735
0.416667	-0.721688
0.5	-0.866025
0.583333	-1.01036
0.666667	-1.1547
0.75	-1.29904
0.833333	-1.44338
0.916667	-1.58771
1	-1.73205
1.08333	-1.87639
1.16667	-2.02073
1.25	-2.16506
1.33333	-2.3094
1.41667	-2.45374
1.5	-2.59808
1.58333	-2.74241
1.66667	-2.88675
1.75	-3.03109
1.83333	-3.17543
1.91667	-3.31976
2	-3.4641
2.08333	-3.60844
2.16667	-3.75278
2.25	-3.89711
2.33333	-4.04145
2.41667	-4.18579
2.5	-4.33013
0	-0
0.111522	-0.123857
0.223044	-0.247715
0.334565	-0.371572
0.446087	-0.49543
0.557609	-0.619287
0.669131	-0.743145
0.780652	-0.867002
0.892174	-0.99086
1.0037	-1.11472
1.11522	-1.23857
1.22674	-1.36243
1.33826	-1.48629
1.44978	-1.61015
1.5613	-1.734
1.67283	-1.85786
1.78435	-1.98172
1.89587	-2.10558
2.00739	-2.22943
2.11891	-2.35329
2.23044	-2.47715
2.34196	-2.60101
2.45348	-2.72486
2.565	-2.84872
2.67652	-2.97258
2.78804	-3.09644
2.89957	-3.22029
3.01109	-3.34415
3.12261	-3.46801
3.23413	-3.59187
3.34565	-3.71572
0	-0
0.134836	-0.0979642
0.269672	-0.195928
0.404508	-0.293893
0.539345	-0.391857
0.674181	-0.489821
0.809017	-0.587785
0.943853	-0.685749
1.07869	-0.783714
1.21353	-0.881678
1.34836	-0.979642
1.4832	-1.07761
1.61803	-1.17557
1.75287	-1.27353
1.88771	-1.3715
2.02254	-1.46946
2.15738	-1.56743
2.29221	-1.66539
2.42705	-1.76336
2.56189	-1.86132
2.69672	-1.95928
2.83156	-2.05725
2.9664	-2.15521
3.10123	-2.25318
3.23607	-2.35114
3.3709	-2.44911
3.50574	-2.54707
3.64058	-2.64503
3.77541	-2.743
3.91025	-2.84096
4.04508	-2.93893
0	-0
0.152258	-0.0677894
0.304515	-0.135579
0.456773	-0.203368
0.60903	-0.271158
0.761288	-0.338947
0.913545	-0.406737
1.0658	-0.474526
1.21806	-0.542316
1.37032	-0.610105
1.52258	-0.677894
1.67483	-0.745684
1.82709	-0.813473
1.97935	-0.881263
2.13161	-0.949052
2.28386	-1.01684
2.43612	-1.08463
2.58838	-1.15242
2.74064	-1.22021
2.89289	-1.288
3.04515	-1.35579
3.19741	-1.42358
3.34967	-1.49137
3.50192	-1.55916
3.65418	-1.62695
3.80644	-1.69474
3.9587	-1.76253
4.11095	-1.83031
4.26321	-1.8981
4.41547	-1.96589
4.56773	-2.03368
0	-0
0.163025	-0.0346519
0.326049	-0.0693039
0.489074	-0.103956
0.652098	-0.138608
0.815123	-0.17326
0.978148	-0.207912
1.14117	-0.242564
1.3042	-0.277216
1.46722	-0.311868
1.63025	-0.346519
1.79327	-0.381171
1.9563	-0.415823
2.11932	-0.450475
2.28234	-0.485127
2.44537	-0.519779
2.60839	-0.554431
2.77142	-0.589083
2.93444	-0.623735
3.09747	-0.658387
3.26049	-0.693039
3.42352	-0.727691
3.58654	-0.762343
3.74957	-0.796995
3.91259	-0.831647
4.07562	-0.866299
4.23864	-0.900951
4.40166	-0.935603
4.56469	-0.970255
4.72771	-1.00491
4.89074	-1.03956
0	-0
0.166667	-4.08216e-17
0.333333	-8.16431e-17
0.5	-1.22465e-16
0.666667	-1.63286e-16
0.833333	-2.04108e-16
1	-2.44929e-16
1.16667	-2.85751e-16
1.33333	-3.26572e-16
1.5	-3.67394e-16
1.66667	-4.08216e-16
1.83333	-4.49037e-16
2	-4.89859e-16
2.16667	-5.3068e-16
2.33333	-5.71502e-16
2.5	-6.12323e-16
2.66667	-6.53145e-16
2.83333	-6.93967e-16
3	-7.34788e-16
3.16667	-7.7561e-16
3.33333	-8.16431e-16
3.5	-8.57253e-16
3.66667	-8.98074e-16
3.83333	-9.38896e-16
4	-9.79717e-16
4.16667	-1.02054e-15
4.33333	-1.06136e-15
4.5	-1.10218e-15
4.66667	-1.143e-15
4.83333	-1.18383e-15
5	-1.22465e-15
