VARIABLES = X Y
ZONE I = 31, J = 51, F = POINT
0	0.0563913
0.0333333	0.0563913
0.0666667	0.0563913
0.1	0.0563913
0.133333	0.0563913
0.166667	0.0563913
0.2	0.0563913
0.233333	0.0563913
0.266667	0.0563913
0.3	0.0563913
0.333333	0.0563913
0.366667	0.0563913
0.4	0.0563913
0.433333	0.0563913
0.466667	0.0563913
0.5	0.0563913
0.533333	0.0563913
0.566667	0.0563913
0.6	0.0563913
0.633333	0.0563913
0.666667	0.0563913
0.7	0.0563913
0.733333	0.0563913
0.766667	0.0563913
0.8	0.0563913
0.833333	0.0563913
0.866667	0.0563913
0.9	0.0563913
0.933333	0.0563913
0.966667	0.0563913
1	0.0563913
0	0.0519773
0.0333333	0.0519773
0.0666667	0.0519773
0.1	0.0519773
0.133333	0.0519773
0.166667	0.0519773
0.2	0.0519773
0.233333	0.0519773
0.266667	0.0519773
0.3	0.0519773
0.333333	0.0519773
0.366667	0.0519773
0.4	0.0519773
0.433333	0.0519773
0.466667	0.0519773
0.5	0.0519773
0.533333	0.0519773
0.566667	0.0519773
0.6	0.0519773
0.633333	0.0519773
0.666667	0.0519773
0.7	0.0519773
0.733333	0.0519773
0.766667	0.0519773
0.8	0.0519773
0.833333	0.0519773
0.866667	0.0519773
0.9	0.0519773
0.933333	0.0519773
0.966667	0.0519773
1	0.0519773
0	0.0477434
0.0333333	0.0477434
0.0666667	0.0477434
0.1	0.0477434
0.133333	0.0477434
0.166667	0.0477434
0.2	0.0477434
0.233333	0.0477434
0.266667	0.0477434
0.3	0.0477434
0.333333	0.0477434
0.366667	0.0477434
0.4	0.0477434
0.433333	0.0477434
0.466667	0.0477434
0.5	0.0477434
0.533333	0.0477434
0.566667	0.0477434
0.6	0.0477434
0.633333	0.0477434
0.666667	0.0477434
0.7	0.0477434
0.733333	0.0477434
0.766667	0.0477434
0.8	0.0477434
0.833333	0.0477434
0.866667	0.0477434
0.9	0.0477434
0.933333	0.0477434
0.966667	0.0477434
1	0.0477434
0	0.0436898
0.0333333	0.0436898
0.0666667	0.0436898
0.1	0.0436898
0.133333	0.0436898
0.166667	0.0436898
0.2	0.0436898
0.233333	0.0436898
0.266667	0.0436898
0.3	0.0436898
0.333333	0.0436898
0.366667	0.0436898
0.4	0.0436898
0.433333	0.0436898
0.466667	0.0436898
0.5	0.0436898
0.533333	0.0436898
0.566667	0.0436898
0.6	0.0436898
0.633333	0.0436898
0.666667	0.0436898
0.7	0.0436898
0.733333	0.0436898
0.766667	0.0436898
0.8	0.0436898
0.833333	0.0436898
0.866667	0.0436898
0.9	0.0436898
0.933333	0.0436898
0.966667	0.0436898
1	0.0436898
0	0.0398162
0.0333333	0.0398162
0.0666667	0.0398162
0.1	0.0398162
0.133333	0.0398162
0.166667	0.0398162
0.2	0.0398162
0.233333	0.0398162
0.266667	0.0398162
0.3	0.0398162
0.333333	0.0398162
0.366667	0.0398162
0.4	0.0398162
0.433333	0.0398162
0.466667	0.0398162
0.5	0.0398162
0.533333	0.0398162
0.566667	0.0398162
0.6	0.0398162
0.633333	0.0398162
0.666667	0.0398162
0.7	0.0398162
0.733333	0.0398162
0.766667	0.0398162
0.8	0.0398162
0.833333	0.0398162
0.866667	0.0398162
0.9	0.0398162
0.933333	0.0398162
0.966667	0.0398162
1	0.0398162
0	0.0361229
0.0333333	0.0361229
0.0666667	0.0361229
0.1	0.0361229
0.133333	0.0361229
0.166667	0.0361229
0.2	0.0361229
0.233333	0.0361229
0.266667	0.0361229
0.3	0.0361229
0.333333	0.0361229
0.366667	0.0361229
0.4	0.0361229
0.433333	0.0361229
0.466667	0.0361229
0.5	0.0361229
0.533333	0.0361229
0.566667	0.0361229
0.6	0.0361229
0.633333	0.0361229
0.666667	0.0361229
0.7	0.0361229
0.733333	0.0361229
0.766667	0.0361229
0.8	0.0361229
0.833333	0.0361229
0.866667	0.0361229
0.9	0.0361229
0.933333	0.0361229
0.966667	0.0361229
1	0.0361229
0	0.0326097
0.0333333	0.0326097
0.0666667	0.0326097
0.1	0.0326097
0.133333	0.0326097
0.166667	0.0326097
0.2	0.0326097
0.233333	0.0326097
0.266667	0.0326097
0.3	0.0326097
0.333333	0.0326097
0.366667	0.0326097
0.4	0.0326097
0.433333	0.0326097
0.466667	0.0326097
0.5	0.0326097
0.533333	0.0326097
0.566667	0.0326097
0.6	0.0326097
0.633333	0.0326097
0.666667	0.0326097
0.7	0.0326097
0.733333	0.0326097
0.766667	0.0326097
0.8	0.0326097
0.833333	0.0326097
0.866667	0.0326097
0.9	0.0326097
0.933333	0.0326097
0.966667	0.0326097
1	0.0326097
0	0.0292766
0.0333333	0.0292766
0.0666667	0.0292766
0.1	0.0292766
0.133333	0.0292766
0.166667	0.0292766
0.2	0.0292766
0.233333	0.0292766
0.266667	0.0292766
0.3	0.0292766
0.333333	0.0292766
0.366667	0.0292766
0.4	0.0292766
0.433333	0.0292766
0.466667	0.0292766
0.5	0.0292766
0.533333	0.0292766
0.566667	0.0292766
0.6	0.0292766
0.633333	0.0292766
0.666667	0.0292766
0.7	0.0292766
0.733333	0.0292766
0.766667	0.0292766
0.8	0.0292766
0.833333	0.0292766
0.866667	0.0292766
0.9	0.0292766
0.933333	0.0292766
0.966667	0.0292766
1	0.0292766
0	0.0261238
0.0333333	0.0261238
0.0666667	0.0261238
0.1	0.0261238
0.133333	0.0261238
0.166667	0.0261238
0.2	0.0261238
0.233333	0.0261238
0.266667	0.0261238
0.3	0.0261238
0.333333	0.0261238
0.366667	0.0261238
0.4	0.0261238
0.433333	0.0261238
0.466667	0.0261238
0.5	0.0261238
0.533333	0.0261238
0.566667	0.0261238
0.6	0.0261238
0.633333	0.0261238
0.666667	0.0261238
0.7	0.0261238
0.733333	0.0261238
0.766667	0.0261238
0.8	0.0261238
0.833333	0.0261238
0.866667	0.0261238
0.9	0.0261238
0.933333	0.0261238
0.966667	0.0261238
1	0.0261238
0	0.0231511
0.0333333	0.0231511
0.0666667	0.0231511
0.1	0.0231511
0.133333	0.0231511
0.166667	0.0231511
0.2	0.0231511
0.233333	0.0231511
0.266667	0.0231511
0.3	0.0231511
0.333333	0.0231511
0.366667	0.0231511
0.4	0.0231511
0.433333	0.0231511
0.466667	0.0231511
0.5	0.0231511
0.533333	0.0231511
0.566667	0.0231511
0.6	0.0231511
0.633333	0.0231511
0.666667	0.0231511
0.7	0.0231511
0.733333	0.0231511
0.766667	0.0231511
0.8	0.0231511
0.833333	0.0231511
0.866667	0.0231511
0.9	0.0231511
0.933333	0.0231511
0.966667	0.0231511
1	0.0231511
0	0.0203585
0.0333333	0.0203585
0.0666667	0.0203585
0.1	0.0203585
0.133333	0.0203585
0.166667	0.0203585
0.2	0.0203585
0.233333	0.0203585
0.266667	0.0203585
0.3	0.0203585
0.333333	0.0203585
0.366667	0.0203585
0.4	0.0203585
0.433333	0.0203585
0.466667	0.0203585
0.5	0.0203585
0.533333	0.0203585
0.566667	0.0203585
0.6	0.0203585
0.633333	0.0203585
0.666667	0.0203585
0.7	0.0203585
0.733333	0.0203585
0.766667	0.0203585
0.8	0.0203585
0.833333	0.0203585
0.866667	0.0203585
0.9	0.0203585
0.933333	0.0203585
0.966667	0.0203585
1	0.0203585
0	0.0177461
0.0333333	0.0177461
0.0666667	0.0177461
0.1	0.0177461
0.133333	0.0177461
0.166667	0.0177461
0.2	0.0177461
0.233333	0.0177461
0.266667	0.0177461
0.3	0.0177461
0.333333	0.0177461
0.366667	0.0177461
0.4	0.0177461
0.433333	0.0177461
0.466667	0.0177461
0.5	0.0177461
0.533333	0.0177461
0.566667	0.0177461
0.6	0.0177461
0.633333	0.0177461
0.666667	0.0177461
0.7	0.0177461
0.733333	0.0177461
0.766667	0.0177461
0.8	0.0177461
0.833333	0.0177461
0.866667	0.0177461
0.9	0.0177461
0.933333	0.0177461
0.966667	0.0177461
1	0.0177461
0	0.0153139
0.0333333	0.0153139
0.0666667	0.0153139
0.1	0.0153139
0.133333	0.0153139
0.166667	0.0153139
0.2	0.0153139
0.233333	0.0153139
0.266667	0.0153139
0.3	0.0153139
0.333333	0.0153139
0.366667	0.0153139
0.4	0.0153139
0.433333	0.0153139
0.466667	0.0153139
0.5	0.0153139
0.533333	0.0153139
0.566667	0.0153139
0.6	0.0153139
0.633333	0.0153139
0.666667	0.0153139
0.7	0.0153139
0.733333	0.0153139
0.766667	0.0153139
0.8	0.0153139
0.833333	0.0153139
0.866667	0.0153139
0.9	0.0153139
0.933333	0.0153139
0.966667	0.0153139
1	0.0153139
0	0.0130619
0.0333333	0.0130619
0.0666667	0.0130619
0.1	0.0130619
0.133333	0.0130619
0.166667	0.0130619
0.2	0.0130619
0.233333	0.0130619
0.266667	0.0130619
0.3	0.0130619
0.333333	0.0130619
0.366667	0.0130619
0.4	0.0130619
0.433333	0.0130619
0.466667	0.0130619
0.5	0.0130619
0.533333	0.0130619
0.566667	0.0130619
0.6	0.0130619
0.633333	0.0130619
0.666667	0.0130619
0.7	0.0130619
0.733333	0.0130619
0.766667	0.0130619
0.8	0.0130619
0.833333	0.0130619
0.866667	0.0130619
0.9	0.0130619
0.933333	0.0130619
0.966667	0.0130619
1	0.0130619
0	0.01099
0.0333333	0.01099
0.0666667	0.01099
0.1	0.01099
0.133333	0.01099
0.166667	0.01099
0.2	0.01099
0.233333	0.01099
0.266667	0.01099
0.3	0.01099
0.333333	0.01099
0.366667	0.01099
0.4	0.01099
0.433333	0.01099
0.466667	0.01099
0.5	0.01099
0.533333	0.01099
0.566667	0.01099
0.6	0.01099
0.633333	0.01099
0.666667	0.01099
0.7	0.01099
0.733333	0.01099
0.766667	0.01099
0.8	0.01099
0.833333	0.01099
0.866667	0.01099
0.9	0.01099
0.933333	0.01099
0.966667	0.01099
1	0.01099
0	0.00909828
0.0333333	0.00909828
0.0666667	0.00909828
0.1	0.00909828
0.133333	0.00909828
0.166667	0.00909828
0.2	0.00909828
0.233333	0.00909828
0.266667	0.00909828
0.3	0.00909828
0.333333	0.00909828
0.366667	0.00909828
0.4	0.00909828
0.433333	0.00909828
0.466667	0.00909828
0.5	0.00909828
0.533333	0.00909828
0.566667	0.00909828
0.6	0.00909828
0.633333	0.00909828
0.666667	0.00909828
0.7	0.00909828
0.733333	0.00909828
0.766667	0.00909828
0.8	0.00909828
0.833333	0.00909828
0.866667	0.00909828
0.9	0.00909828
0.933333	0.00909828
0.966667	0.00909828
1	0.00909828
0	0.00738672
0.0333333	0.00738672
0.0666667	0.00738672
0.1	0.00738672
0.133333	0.00738672
0.166667	0.00738672
0.2	0.00738672
0.233333	0.00738672
0.266667	0.00738672
0.3	0.00738672
0.333333	0.00738672
0.366667	0.00738672
0.4	0.00738672
0.433333	0.00738672
0.466667	0.00738672
0.5	0.00738672
0.533333	0.00738672
0.566667	0.00738672
0.6	0.00738672
0.633333	0.00738672
0.666667	0.00738672
0.7	0.00738672
0.733333	0.00738672
0.766667	0.00738672
0.8	0.00738672
0.833333	0.00738672
0.866667	0.00738672
0.9	0.00738672
0.933333	0.00738672
0.966667	0.00738672
1	0.00738672
0	0.00585533
0.0333333	0.00585533
0.0666667	0.00585533
0.1	0.00585533
0.133333	0.00585533
0.166667	0.00585533
0.2	0.00585533
0.233333	0.00585533
0.266667	0.00585533
0.3	0.00585533
0.333333	0.00585533
0.366667	0.00585533
0.4	0.00585533
0.433333	0.00585533
0.466667	0.00585533
0.5	0.00585533
0.533333	0.00585533
0.566667	0.00585533
0.6	0.00585533
0.633333	0.00585533
0.666667	0.00585533
0.7	0.00585533
0.733333	0.00585533
0.766667	0.00585533
0.8	0.00585533
0.833333	0.00585533
0.866667	0.00585533
0.9	0.00585533
0.933333	0.00585533
0.966667	0.00585533
1	0.00585533
0	0.0045041
0.0333333	0.0045041
0.0666667	0.0045041
0.1	0.0045041
0.133333	0.0045041
0.166667	0.0045041
0.2	0.0045041
0.233333	0.0045041
0.266667	0.0045041
0.3	0.0045041
0.333333	0.0045041
0.366667	0.0045041
0.4	0.0045041
0.433333	0.0045041
0.466667	0.0045041
0.5	0.0045041
0.533333	0.0045041
0.566667	0.0045041
0.6	0.0045041
0.633333	0.0045041
0.666667	0.0045041
0.7	0.0045041
0.733333	0.0045041
0.766667	0.0045041
0.8	0.0045041
0.833333	0.0045041
0.866667	0.0045041
0.9	0.0045041
0.933333	0.0045041
0.966667	0.0045041
1	0.0045041
0	0.00333303
0.0333333	0.00333303
0.0666667	0.00333303
0.1	0.00333303
0.133333	0.00333303
0.166667	0.00333303
0.2	0.00333303
0.233333	0.00333303
0.266667	0.00333303
0.3	0.00333303
0.333333	0.00333303
0.366667	0.00333303
0.4	0.00333303
0.433333	0.00333303
0.466667	0.00333303
0.5	0.00333303
0.533333	0.00333303
0.566667	0.00333303
0.6	0.00333303
0.633333	0.00333303
0.666667	0.00333303
0.7	0.00333303
0.733333	0.00333303
0.766667	0.00333303
0.8	0.00333303
0.833333	0.00333303
0.866667	0.00333303
0.9	0.00333303
0.933333	0.00333303
0.966667	0.00333303
1	0.00333303
0	0.00234213
0.0333333	0.00234213
0.0666667	0.00234213
0.1	0.00234213
0.133333	0.00234213
0.166667	0.00234213
0.2	0.00234213
0.233333	0.00234213
0.266667	0.00234213
0.3	0.00234213
0.333333	0.00234213
0.366667	0.00234213
0.4	0.00234213
0.433333	0.00234213
0.466667	0.00234213
0.5	0.00234213
0.533333	0.00234213
0.566667	0.00234213
0.6	0.00234213
0.633333	0.00234213
0.666667	0.00234213
0.7	0.00234213
0.733333	0.00234213
0.766667	0.00234213
0.8	0.00234213
0.833333	0.00234213
0.866667	0.00234213
0.9	0.00234213
0.933333	0.00234213
0.966667	0.00234213
1	0.00234213
0	0.00153139
0.0333333	0.00153139
0.0666667	0.00153139
0.1	0.00153139
0.133333	0.00153139
0.166667	0.00153139
0.2	0.00153139
0.233333	0.00153139
0.266667	0.00153139
0.3	0.00153139
0.333333	0.00153139
0.366667	0.00153139
0.4	0.00153139
0.433333	0.00153139
0.466667	0.00153139
0.5	0.00153139
0.533333	0.00153139
0.566667	0.00153139
0.6	0.00153139
0.633333	0.00153139
0.666667	0.00153139
0.7	0.00153139
0.733333	0.00153139
0.766667	0.00153139
0.8	0.00153139
0.833333	0.00153139
0.866667	0.00153139
0.9	0.00153139
0.933333	0.00153139
0.966667	0.00153139
1	0.00153139
0	0.00090082
0.0333333	0.00090082
0.0666667	0.00090082
0.1	0.00090082
0.133333	0.00090082
0.166667	0.00090082
0.2	0.00090082
0.233333	0.00090082
0.266667	0.00090082
0.3	0.00090082
0.333333	0.00090082
0.366667	0.00090082
0.4	0.00090082
0.433333	0.00090082
0.466667	0.00090082
0.5	0.00090082
0.533333	0.00090082
0.566667	0.00090082
0.6	0.00090082
0.633333	0.00090082
0.666667	0.00090082
0.7	0.00090082
0.733333	0.00090082
0.766667	0.00090082
0.8	0.00090082
0.833333	0.00090082
0.866667	0.00090082
0.9	0.00090082
0.933333	0.00090082
0.966667	0.00090082
1	0.00090082
0	0.00045041
0.0333333	0.00045041
0.0666667	0.00045041
0.1	0.00045041
0.133333	0.00045041
0.166667	0.00045041
0.2	0.00045041
0.233333	0.00045041
0.266667	0.00045041
0.3	0.00045041
0.333333	0.00045041
0.366667	0.00045041
0.4	0.00045041
0.433333	0.00045041
0.466667	0.00045041
0.5	0.00045041
0.533333	0.00045041
0.566667	0.00045041
0.6	0.00045041
0.633333	0.00045041
0.666667	0.00045041
0.7	0.00045041
0.733333	0.00045041
0.766667	0.00045041
0.8	0.00045041
0.833333	0.00045041
0.866667	0.00045041
0.9	0.00045041
0.933333	0.00045041
0.966667	0.00045041
1	0.00045041
0	0.000180164
0.0333333	0.000180164
0.0666667	0.000180164
0.1	0.000180164
0.133333	0.000180164
0.166667	0.000180164
0.2	0.000180164
0.233333	0.000180164
0.266667	0.000180164
0.3	0.000180164
0.333333	0.000180164
0.366667	0.000180164
0.4	0.000180164
0.433333	0.000180164
0.466667	0.000180164
0.5	0.000180164
0.533333	0.000180164
0.566667	0.000180164
0.6	0.000180164
0.633333	0.000180164
0.666667	0.000180164
0.7	0.000180164
0.733333	0.000180164
0.766667	0.000180164
0.8	0.000180164
0.833333	0.000180164
0.866667	0.000180164
0.9	0.000180164
0.933333	0.000180164
0.966667	0.000180164
1	0.000180164
0	9.0082e-05
0.0333333	9.0082e-05
0.0666667	9.0082e-05
0.1	9.0082e-05
0.133333	9.0082e-05
0.166667	9.0082e-05
0.2	9.0082e-05
0.233333	9.0082e-05
0.266667	9.0082e-05
0.3	9.0082e-05
0.333333	9.0082e-05
0.366667	9.0082e-05
0.4	9.0082e-05
0.433333	9.0082e-05
0.466667	9.0082e-05
0.5	9.0082e-05
0.533333	9.0082e-05
0.566667	9.0082e-05
0.6	9.0082e-05
0.633333	9.0082e-05
0.666667	9.0082e-05
0.7	9.0082e-05
0.733333	9.0082e-05
0.766667	9.0082e-05
0.8	9.0082e-05
0.833333	9.0082e-05
0.866667	9.0082e-05
0.9	9.0082e-05
0.933333	9.0082e-05
0.966667	9.0082e-05
1	9.0082e-05
0	0.000180164
0.0333333	0.000180164
0.0666667	0.000180164
0.1	0.000180164
0.133333	0.000180164
0.166667	0.000180164
0.2	0.000180164
0.233333	0.000180164
0.266667	0.000180164
0.3	0.000180164
0.333333	0.000180164
0.366667	0.000180164
0.4	0.000180164
0.433333	0.000180164
0.466667	0.000180164
0.5	0.000180164
0.533333	0.000180164
0.566667	0.000180164
0.6	0.000180164
0.633333	0.000180164
0.666667	0.000180164
0.7	0.000180164
0.733333	0.000180164
0.766667	0.000180164
0.8	0.000180164
0.833333	0.000180164
0.866667	0.000180164
0.9	0.000180164
0.933333	0.000180164
0.966667	0.000180164
1	0.000180164
0	0.00045041
0.0333333	0.00045041
0.0666667	0.00045041
0.1	0.00045041
0.133333	0.00045041
0.166667	0.00045041
0.2	0.00045041
0.233333	0.00045041
0.266667	0.00045041
0.3	0.00045041
0.333333	0.00045041
0.366667	0.00045041
0.4	0.00045041
0.433333	0.00045041
0.466667	0.00045041
0.5	0.00045041
0.533333	0.00045041
0.566667	0.00045041
0.6	0.00045041
0.633333	0.00045041
0.666667	0.00045041
0.7	0.00045041
0.733333	0.00045041
0.766667	0.00045041
0.8	0.00045041
0.833333	0.00045041
0.866667	0.00045041
0.9	0.00045041
0.933333	0.00045041
0.966667	0.00045041
1	0.00045041
0	0.00090082
0.0333333	0.00090082
0.0666667	0.00090082
0.1	0.00090082
0.133333	0.00090082
0.166667	0.00090082
0.2	0.00090082
0.233333	0.00090082
0.266667	0.00090082
0.3	0.00090082
0.333333	0.00090082
0.366667	0.00090082
0.4	0.00090082
0.433333	0.00090082
0.466667	0.00090082
0.5	0.00090082
0.533333	0.00090082
0.566667	0.00090082
0.6	0.00090082
0.633333	0.00090082
0.666667	0.00090082
0.7	0.00090082
0.733333	0.00090082
0.766667	0.00090082
0.8	0.00090082
0.833333	0.00090082
0.866667	0.00090082
0.9	0.00090082
0.933333	0.00090082
0.966667	0.00090082
1	0.00090082
0	0.00153139
0.0333333	0.00153139
0.0666667	0.00153139
0.1	0.00153139
0.133333	0.00153139
0.166667	0.00153139
0.2	0.00153139
0.233333	0.00153139
0.266667	0.00153139
0.3	0.00153139
0.333333	0.00153139
0.366667	0.00153139
0.4	0.00153139
0.433333	0.00153139
0.466667	0.00153139
0.5	0.00153139
0.533333	0.00153139
0.566667	0.00153139
0.6	0.00153139
0.633333	0.00153139
0.666667	0.00153139
0.7	0.00153139
0.733333	0.00153139
0.766667	0.00153139
0.8	0.00153139
0.833333	0.00153139
0.866667	0.00153139
0.9	0.00153139
0.933333	0.00153139
0.966667	0.00153139
1	0.00153139
0	0.00234213
0.0333333	0.00234213
0.0666667	0.00234213
0.1	0.00234213
0.133333	0.00234213
0.166667	0.00234213
0.2	0.00234213
0.233333	0.00234213
0.266667	0.00234213
0.3	0.00234213
0.333333	0.00234213
0.366667	0.00234213
0.4	0.00234213
0.433333	0.00234213
0.466667	0.00234213
0.5	0.00234213
0.533333	0.00234213
0.566667	0.00234213
0.6	0.00234213
0.633333	0.00234213
0.666667	0.00234213
0.7	0.00234213
0.733333	0.00234213
0.766667	0.00234213
0.8	0.00234213
0.833333	0.00234213
0.866667	0.00234213
0.9	0.00234213
0.933333	0.00234213
0.966667	0.00234213
1	0.00234213
0	0.00333303
0.0333333	0.00333303
0.0666667	0.00333303
0.1	0.00333303
0.133333	0.00333303
0.166667	0.00333303
0.2	0.00333303
0.233333	0.00333303
0.266667	0.00333303
0.3	0.00333303
0.333333	0.00333303
0.366667	0.00333303
0.4	0.00333303
0.433333	0.00333303
0.466667	0.00333303
0.5	0.00333303
0.533333	0.00333303
0.566667	0.00333303
0.6	0.00333303
0.633333	0.00333303
0.666667	0.00333303
0.7	0.00333303
0.733333	0.00333303
0.766667	0.00333303
0.8	0.00333303
0.833333	0.00333303
0.866667	0.00333303
0.9	0.00333303
0.933333	0.00333303
0.966667	0.00333303
1	0.00333303
0	0.0045041
0.0333333	0.0045041
0.0666667	0.0045041
0.1	0.0045041
0.133333	0.0045041
0.166667	0.0045041
0.2	0.0045041
0.233333	0.0045041
0.266667	0.0045041
0.3	0.0045041
0.333333	0.0045041
0.366667	0.0045041
0.4	0.0045041
0.433333	0.0045041
0.466667	0.0045041
0.5	0.0045041
0.533333	0.0045041
0.566667	0.0045041
0.6	0.0045041
0.633333	0.0045041
0.666667	0.0045041
0.7	0.0045041
0.733333	0.0045041
0.766667	0.0045041
0.8	0.0045041
0.833333	0.0045041
0.866667	0.0045041
0.9	0.0045041
0.933333	0.0045041
0.966667	0.0045041
1	0.0045041
0	0.00585533
0.0333333	0.00585533
0.0666667	0.00585533
0.1	0.00585533
0.133333	0.00585533
0.166667	0.00585533
0.2	0.00585533
0.233333	0.00585533
0.266667	0.00585533
0.3	0.00585533
0.333333	0.00585533
0.366667	0.00585533
0.4	0.00585533
0.433333	0.00585533
0.466667	0.00585533
0.5	0.00585533
0.533333	0.00585533
0.566667	0.00585533
0.6	0.00585533
0.633333	0.00585533
0.666667	0.00585533
0.7	0.00585533
0.733333	0.00585533
0.766667	0.00585533
0.8	0.00585533
0.833333	0.00585533
0.866667	0.00585533
0.9	0.00585533
0.933333	0.00585533
0.966667	0.00585533
1	0.00585533
0	0.00738672
0.0333333	0.00738672
0.0666667	0.00738672
0.1	0.00738672
0.133333	0.00738672
0.166667	0.00738672
0.2	0.00738672
0.233333	0.00738672
0.266667	0.00738672
0.3	0.00738672
0.333333	0.00738672
0.366667	0.00738672
0.4	0.00738672
0.433333	0.00738672
0.466667	0.00738672
0.5	0.00738672
0.533333	0.00738672
0.566667	0.00738672
0.6	0.00738672
0.633333	0.00738672
0.666667	0.00738672
0.7	0.00738672
0.733333	0.00738672
0.766667	0.00738672
0.8	0.00738672
0.833333	0.00738672
0.866667	0.00738672
0.9	0.00738672
0.933333	0.00738672
0.966667	0.00738672
1	0.00738672
0	0.00909828
0.0333333	0.00909828
0.0666667	0.00909828
0.1	0.00909828
0.133333	0.00909828
0.166667	0.00909828
0.2	0.00909828
0.233333	0.00909828
0.266667	0.00909828
0.3	0.00909828
0.333333	0.00909828
0.366667	0.00909828
0.4	0.00909828
0.433333	0.00909828
0.466667	0.00909828
0.5	0.00909828
0.533333	0.00909828
0.566667	0.00909828
0.6	0.00909828
0.633333	0.00909828
0.666667	0.00909828
0.7	0.00909828
0.733333	0.00909828
0.766667	0.00909828
0.8	0.00909828
0.833333	0.00909828
0.866667	0.00909828
0.9	0.00909828
0.933333	0.00909828
0.966667	0.00909828
1	0.00909828
0	0.01099
0.0333333	0.01099
0.0666667	0.01099
0.1	0.01099
0.133333	0.01099
0.166667	0.01099
0.2	0.01099
0.233333	0.01099
0.266667	0.01099
0.3	0.01099
0.333333	0.01099
0.366667	0.01099
0.4	0.01099
0.433333	0.01099
0.466667	0.01099
0.5	0.01099
0.533333	0.01099
0.566667	0.01099
0.6	0.01099
0.633333	0.01099
0.666667	0.01099
0.7	0.01099
0.733333	0.01099
0.766667	0.01099
0.8	0.01099
0.833333	0.01099
0.866667	0.01099
0.9	0.01099
0.933333	0.01099
0.966667	0.01099
1	0.01099
0	0.0130619
0.0333333	0.0130619
0.0666667	0.0130619
0.1	0.0130619
0.133333	0.0130619
0.166667	0.0130619
0.2	0.0130619
0.233333	0.0130619
0.266667	0.0130619
0.3	0.0130619
0.333333	0.0130619
0.366667	0.0130619
0.4	0.0130619
0.433333	0.0130619
0.466667	0.0130619
0.5	0.0130619
0.533333	0.0130619
0.566667	0.0130619
0.6	0.0130619
0.633333	0.0130619
0.666667	0.0130619
0.7	0.0130619
0.733333	0.0130619
0.766667	0.0130619
0.8	0.0130619
0.833333	0.0130619
0.866667	0.0130619
0.9	0.0130619
0.933333	0.0130619
0.966667	0.0130619
1	0.0130619
0	0.0153139
0.0333333	0.0153139
0.0666667	0.0153139
0.1	0.0153139
0.133333	0.0153139
0.166667	0.0153139
0.2	0.0153139
0.233333	0.0153139
0.266667	0.0153139
0.3	0.0153139
0.333333	0.0153139
0.366667	0.0153139
0.4	0.0153139
0.433333	0.0153139
0.466667	0.0153139
0.5	0.0153139
0.533333	0.0153139
0.566667	0.0153139
0.6	0.0153139
0.633333	0.0153139
0.666667	0.0153139
0.7	0.0153139
0.733333	0.0153139
0.766667	0.0153139
0.8	0.0153139
0.833333	0.0153139
0.866667	0.0153139
0.9	0.0153139
0.933333	0.0153139
0.966667	0.0153139
1	0.0153139
0	0.0177461
0.0333333	0.0177461
0.0666667	0.0177461
0.1	0.0177461
0.133333	0.0177461
0.166667	0.0177461
0.2	0.0177461
0.233333	0.0177461
0.266667	0.0177461
0.3	0.0177461
0.333333	0.0177461
0.366667	0.0177461
0.4	0.0177461
0.433333	0.0177461
0.466667	0.0177461
0.5	0.0177461
0.533333	0.0177461
0.566667	0.0177461
0.6	0.0177461
0.633333	0.0177461
0.666667	0.0177461
0.7	0.0177461
0.733333	0.0177461
0.766667	0.0177461
0.8	0.0177461
0.833333	0.0177461
0.866667	0.0177461
0.9	0.0177461
0.933333	0.0177461
0.966667	0.0177461
1	0.0177461
0	0.0203585
0.0333333	0.0203585
0.0666667	0.0203585
0.1	0.0203585
0.133333	0.0203585
0.166667	0.0203585
0.2	0.0203585
0.233333	0.0203585
0.266667	0.0203585
0.3	0.0203585
0.333333	0.0203585
0.366667	0.0203585
0.4	0.0203585
0.433333	0.0203585
0.466667	0.0203585
0.5	0.0203585
0.533333	0.0203585
0.566667	0.0203585
0.6	0.0203585
0.633333	0.0203585
0.666667	0.0203585
0.7	0.0203585
0.733333	0.0203585
0.766667	0.0203585
0.8	0.0203585
0.833333	0.0203585
0.866667	0.0203585
0.9	0.0203585
0.933333	0.0203585
0.966667	0.0203585
1	0.0203585
0	0.0231511
0.0333333	0.0231511
0.0666667	0.0231511
0.1	0.0231511
0.133333	0.0231511
0.166667	0.0231511
0.2	0.0231511
0.233333	0.0231511
0.266667	0.0231511
0.3	0.0231511
0.333333	0.0231511
0.366667	0.0231511
0.4	0.0231511
0.433333	0.0231511
0.466667	0.0231511
0.5	0.0231511
0.533333	0.0231511
0.566667	0.0231511
0.6	0.0231511
0.633333	0.0231511
0.666667	0.0231511
0.7	0.0231511
0.733333	0.0231511
0.766667	0.0231511
0.8	0.0231511
0.833333	0.0231511
0.866667	0.0231511
0.9	0.0231511
0.933333	0.0231511
0.966667	0.0231511
1	0.0231511
0	0.0261238
0.0333333	0.0261238
0.0666667	0.0261238
0.1	0.0261238
0.133333	0.0261238
0.166667	0.0261238
0.2	0.0261238
0.233333	0.0261238
0.266667	0.0261238
0.3	0.0261238
0.333333	0.0261238
0.366667	0.0261238
0.4	0.0261238
0.433333	0.0261238
0.466667	0.0261238
0.5	0.0261238
0.533333	0.0261238
0.566667	0.0261238
0.6	0.0261238
0.633333	0.0261238
0.666667	0.0261238
0.7	0.0261238
0.733333	0.0261238
0.766667	0.0261238
0.8	0.0261238
0.833333	0.0261238
0.866667	0.0261238
0.9	0.0261238
0.933333	0.0261238
0.966667	0.0261238
1	0.0261238
0	0.0292766
0.0333333	0.0292766
0.0666667	0.0292766
0.1	0.0292766
0.133333	0.0292766
0.166667	0.0292766
0.2	0.0292766
0.233333	0.0292766
0.266667	0.0292766
0.3	0.0292766
0.333333	0.0292766
0.366667	0.0292766
0.4	0.0292766
0.433333	0.0292766
0.466667	0.0292766
0.5	0.0292766
0.533333	0.0292766
0.566667	0.0292766
0.6	0.0292766
0.633333	0.0292766
0.666667	0.0292766
0.7	0.0292766
0.733333	0.0292766
0.766667	0.0292766
0.8	0.0292766
0.833333	0.0292766
0.866667	0.0292766
0.9	0.0292766
0.933333	0.0292766
0.966667	0.0292766
1	0.0292766
0	0.0326097
0.0333333	0.0326097
0.0666667	0.0326097
0.1	0.0326097
0.133333	0.0326097
0.166667	0.0326097
0.2	0.0326097
0.233333	0.0326097
0.266667	0.0326097
0.3	0.0326097
0.333333	0.0326097
0.366667	0.0326097
0.4	0.0326097
0.433333	0.0326097
0.466667	0.0326097
0.5	0.0326097
0.533333	0.0326097
0.566667	0.0326097
0.6	0.0326097
0.633333	0.0326097
0.666667	0.0326097
0.7	0.0326097
0.733333	0.0326097
0.766667	0.0326097
0.8	0.0326097
0.833333	0.0326097
0.866667	0.0326097
0.9	0.0326097
0.933333	0.0326097
0.966667	0.0326097
1	0.0326097
0	0.0361229
0.0333333	0.0361229
0.0666667	0.0361229
0.1	0.0361229
0.133333	0.0361229
0.166667	0.0361229
0.2	0.0361229
0.233333	0.0361229
0.266667	0.0361229
0.3	0.0361229
0.333333	0.0361229
0.366667	0.0361229
0.4	0.0361229
0.433333	0.0361229
0.466667	0.0361229
0.5	0.0361229
0.533333	0.0361229
0.566667	0.0361229
0.6	0.0361229
0.633333	0.0361229
0.666667	0.0361229
0.7	0.0361229
0.733333	0.0361229
0.766667	0.0361229
0.8	0.0361229
0.833333	0.0361229
0.866667	0.0361229
0.9	0.0361229
0.933333	0.0361229
0.966667	0.0361229
1	0.0361229
0	0.0398162
0.0333333	0.0398162
0.0666667	0.0398162
0.1	0.0398162
0.133333	0.0398162
0.166667	0.0398162
0.2	0.0398162
0.233333	0.0398162
0.266667	0.0398162
0.3	0.0398162
0.333333	0.0398162
0.366667	0.0398162
0.4	0.0398162
0.433333	0.0398162
0.466667	0.0398162
0.5	0.0398162
0.533333	0.0398162
0.566667	0.0398162
0.6	0.0398162
0.633333	0.0398162
0.666667	0.0398162
0.7	0.0398162
0.733333	0.0398162
0.766667	0.0398162
0.8	0.0398162
0.833333	0.0398162
0.866667	0.0398162
0.9	0.0398162
0.933333	0.0398162
0.966667	0.0398162
1	0.0398162
0	0.0436898
0.0333333	0.0436898
0.0666667	0.0436898
0.1	0.0436898
0.133333	0.0436898
0.166667	0.0436898
0.2	0.0436898
0.233333	0.0436898
0.266667	0.0436898
0.3	0.0436898
0.333333	0.0436898
0.366667	0.0436898
0.4	0.0436898
0.433333	0.0436898
0.466667	0.0436898
0.5	0.0436898
0.533333	0.0436898
0.566667	0.0436898
0.6	0.0436898
0.633333	0.0436898
0.666667	0.0436898
0.7	0.0436898
0.733333	0.0436898
0.766667	0.0436898
0.8	0.0436898
0.833333	0.0436898
0.866667	0.0436898
0.9	0.0436898
0.933333	0.0436898
0.966667	0.0436898
1	0.0436898
0	0.0477434
0.0333333	0.0477434
0.0666667	0.0477434
0.1	0.0477434
0.133333	0.0477434
0.166667	0.0477434
0.2	0.0477434
0.233333	0.0477434
0.266667	0.0477434
0.3	0.0477434
0.333333	0.0477434
0.366667	0.0477434
0.4	0.0477434
0.433333	0.0477434
0.466667	0.0477434
0.5	0.0477434
0.533333	0.0477434
0.566667	0.0477434
0.6	0.0477434
0.633333	0.0477434
0.666667	0.0477434
0.7	0.0477434
0.733333	0.0477434
0.766667	0.0477434
0.8	0.0477434
0.833333	0.0477434
0.866667	0.0477434
0.9	0.0477434
0.933333	0.0477434
0.966667	0.0477434
1	0.0477434
0	0.0519773
0.0333333	0.0519773
0.0666667	0.0519773
0.1	0.0519773
0.133333	0.0519773
0.166667	0.0519773
0.2	0.0519773
0.233333	0.0519773
0.266667	0.0519773
0.3	0.0519773
0.333333	0.0519773
0.366667	0.0519773
0.4	0.0519773
0.433333	0.0519773
0.466667	0.0519773
0.5	0.0519773
0.533333	0.0519773
0.566667	0.0519773
0.6	0.0519773
0.633333	0.0519773
0.666667	0.0519773
0.7	0.0519773
0.733333	0.0519773
0.766667	0.0519773
0.8	0.0519773
0.833333	0.0519773
0.866667	0.0519773
0.9	0.0519773
0.933333	0.0519773
0.966667	0.0519773
1	0.0519773
0	0.0563913
0.0333333	0.0563913
0.0666667	0.0563913
0.1	0.0563913
0.133333	0.0563913
0.166667	0.0563913
0.2	0.0563913
0.233333	0.0563913
0.266667	0.0563913
0.3	0.0563913
0.333333	0.0563913
0.366667	0.0563913
0.4	0.0563913
0.433333	0.0563913
0.466667	0.0563913
0.5	0.0563913
0.533333	0.0563913
0.566667	0.0563913
0.6	0.0563913
0.633333	0.0563913
0.666667	0.0563913
0.7	0.0563913
0.733333	0.0563913
0.766667	0.0563913
0.8	0.0563913
0.833333	0.0563913
0.866667	0.0563913
0.9	0.0563913
0.933333	0.0563913
0.966667	0.0563913
1	0.0563913
