VARIABLES = X Y
ZONE I = 46, J = 51, F = POINT
0	0
0.0144338	0.025
0.0288675	0.05
0.0433013	0.075
0.057735	0.1
0.0721688	0.125
0.0866025	0.15
0.101036	0.175
0.11547	0.2
0.129904	0.225
0.144338	0.25
0.158771	0.275
0.173205	0.3
0.187639	0.325
0.202073	0.35
0.216506	0.375
0.23094	0.4
0.245374	0.425
0.259808	0.45
0.274241	0.475
0	0
0.02	0.02
0.04	0.04
0.06	0.06
0.08	0.08
0.1	0.1
0.12	0.12
0.14	0.14
0.16	0.16
0.18	0.18
0.2	0.2
0.22	0.22
0.24	0.24
0.26	0.26
0.28	0.28
0.3	0.3
0.32	0.32
0.34	0.34
0.36	0.36
0.38	0.38
0.4	0.4
0.42	0.42
0.44	0.44
0.46	0.46
0.48	0.48
0.5	0.5
0	0.02
0.0144338	0.0445
0.0288675	0.069
0.0433013	0.0935
0.057735	0.118
0.0721688	0.1425
0.0866025	0.167
0.101036	0.1915
0.11547	0.216
0.129904	0.2405
0.144338	0.265
0.158771	0.2895
0.173205	0.314
0.187639	0.3385
0.202073	0.363
0.216506	0.3875
0.23094	0.412
0.245374	0.4365
0.259808	0.461
0.274241	0.4855
0	0.02
0.02	0.0396
0.04	0.0592
0.06	0.0788
0.08	0.0984
0.1	0.118
0.12	0.1376
0.14	0.1572
0.16	0.1768
0.18	0.1964
0.2	0.216
0.22	0.2356
0.24	0.2552
0.26	0.2748
0.28	0.2944
0.3	0.314
0.32	0.3336
0.34	0.3532
0.36	0.3728
0.38	0.3924
0.4	0.412
0.42	0.4316
0.44	0.4512
0.46	0.4708
0.48	0.4904
0.5	0.51
0	0.04
0.0144338	0.064
0.0288675	0.088
0.0433013	0.112
0.057735	0.136
0.0721688	0.16
0.0866025	0.184
0.101036	0.208
0.11547	0.232
0.129904	0.256
0.144338	0.28
0.158771	0.304
0.173205	0.328
0.187639	0.352
0.202073	0.376
0.216506	0.4
0.23094	0.424
0.245374	0.448
0.259808	0.472
0.274241	0.496
0	0.04
0.02	0.0592
0.04	0.0784
0.06	0.0976
0.08	0.1168
0.1	0.136
0.12	0.1552
0.14	0.1744
0.16	0.1936
0.18	0.2128
0.2	0.232
0.22	0.2512
0.24	0.2704
0.26	0.2896
0.28	0.3088
0.3	0.328
0.32	0.3472
0.34	0.3664
0.36	0.3856
0.38	0.4048
0.4	0.424
0.42	0.4432
0.44	0.4624
0.46	0.4816
0.48	0.5008
0.5	0.52
0	0.06
0.0144338	0.0835
0.0288675	0.107
0.0433013	0.1305
0.057735	0.154
0.0721688	0.1775
0.0866025	0.201
0.101036	0.2245
0.11547	0.248
0.129904	0.2715
0.144338	0.295
0.158771	0.3185
0.173205	0.342
0.187639	0.3655
0.202073	0.389
0.216506	0.4125
0.23094	0.436
0.245374	0.4595
0.259808	0.483
0.274241	0.5065
0	0.06
0.02	0.0788
0.04	0.0976
0.06	0.1164
0.08	0.1352
0.1	0.154
0.12	0.1728
0.14	0.1916
0.16	0.2104
0.18	0.2292
0.2	0.248
0.22	0.2668
0.24	0.2856
0.26	0.3044
0.28	0.3232
0.3	0.342
0.32	0.3608
0.34	0.3796
0.36	0.3984
0.38	0.4172
0.4	0.436
0.42	0.4548
0.44	0.4736
0.46	0.4924
0.48	0.5112
0.5	0.53
0	0.08
0.0144338	0.103
0.0288675	0.126
0.0433013	0.149
0.057735	0.172
0.0721688	0.195
0.0866025	0.218
0.101036	0.241
0.11547	0.264
0.129904	0.287
0.144338	0.31
0.158771	0.333
0.173205	0.356
0.187639	0.379
0.202073	0.402
0.216506	0.425
0.23094	0.448
0.245374	0.471
0.259808	0.494
0.274241	0.517
0	0.08
0.02	0.0984
0.04	0.1168
0.06	0.1352
0.08	0.1536
0.1	0.172
0.12	0.1904
0.14	0.2088
0.16	0.2272
0.18	0.2456
0.2	0.264
0.22	0.2824
0.24	0.3008
0.26	0.3192
0.28	0.3376
0.3	0.356
0.32	0.3744
0.34	0.3928
0.36	0.4112
0.38	0.4296
0.4	0.448
0.42	0.4664
0.44	0.4848
0.46	0.5032
0.48	0.5216
0.5	0.54
0	0.1
0.0144338	0.1225
0.0288675	0.145
0.0433013	0.1675
0.057735	0.19
0.0721688	0.2125
0.0866025	0.235
0.101036	0.2575
0.11547	0.28
0.129904	0.3025
0.144338	0.325
0.158771	0.3475
0.173205	0.37
0.187639	0.3925
0.202073	0.415
0.216506	0.4375
0.23094	0.46
0.245374	0.4825
0.259808	0.505
0.274241	0.5275
0	0.1
0.02	0.118
0.04	0.136
0.06	0.154
0.08	0.172
0.1	0.19
0.12	0.208
0.14	0.226
0.16	0.244
0.18	0.262
0.2	0.28
0.22	0.298
0.24	0.316
0.26	0.334
0.28	0.352
0.3	0.37
0.32	0.388
0.34	0.406
0.36	0.424
0.38	0.442
0.4	0.46
0.42	0.478
0.44	0.496
0.46	0.514
0.48	0.532
0.5	0.55
0	0.12
0.0144338	0.142
0.0288675	0.164
0.0433013	0.186
0.057735	0.208
0.0721688	0.23
0.0866025	0.252
0.101036	0.274
0.11547	0.296
0.129904	0.318
0.144338	0.34
0.158771	0.362
0.173205	0.384
0.187639	0.406
0.202073	0.428
0.216506	0.45
0.23094	0.472
0.245374	0.494
0.259808	0.516
0.274241	0.538
0	0.12
0.02	0.1376
0.04	0.1552
0.06	0.1728
0.08	0.1904
0.1	0.208
0.12	0.2256
0.14	0.2432
0.16	0.2608
0.18	0.2784
0.2	0.296
0.22	0.3136
0.24	0.3312
0.26	0.3488
0.28	0.3664
0.3	0.384
0.32	0.4016
0.34	0.4192
0.36	0.4368
0.38	0.4544
0.4	0.472
0.42	0.4896
0.44	0.5072
0.46	0.5248
0.48	0.5424
0.5	0.56
0	0.14
0.0144338	0.1615
0.0288675	0.183
0.0433013	0.2045
0.057735	0.226
0.0721688	0.2475
0.0866025	0.269
0.101036	0.2905
0.11547	0.312
0.129904	0.3335
0.144338	0.355
0.158771	0.3765
0.173205	0.398
0.187639	0.4195
0.202073	0.441
0.216506	0.4625
0.23094	0.484
0.245374	0.5055
0.259808	0.527
0.274241	0.5485
0	0.14
0.02	0.1572
0.04	0.1744
0.06	0.1916
0.08	0.2088
0.1	0.226
0.12	0.2432
0.14	0.2604
0.16	0.2776
0.18	0.2948
0.2	0.312
0.22	0.3292
0.24	0.3464
0.26	0.3636
0.28	0.3808
0.3	0.398
0.32	0.4152
0.34	0.4324
0.36	0.4496
0.38	0.4668
0.4	0.484
0.42	0.5012
0.44	0.5184
0.46	0.5356
0.48	0.5528
0.5	0.57
0	0.16
0.0144338	0.181
0.0288675	0.202
0.0433013	0.223
0.057735	0.244
0.0721688	0.265
0.0866025	0.286
0.101036	0.307
0.11547	0.328
0.129904	0.349
0.144338	0.37
0.158771	0.391
0.173205	0.412
0.187639	0.433
0.202073	0.454
0.216506	0.475
0.23094	0.496
0.245374	0.517
0.259808	0.538
0.274241	0.559
0	0.16
0.02	0.1768
0.04	0.1936
0.06	0.2104
0.08	0.2272
0.1	0.244
0.12	0.2608
0.14	0.2776
0.16	0.2944
0.18	0.3112
0.2	0.328
0.22	0.3448
0.24	0.3616
0.26	0.3784
0.28	0.3952
0.3	0.412
0.32	0.4288
0.34	0.4456
0.36	0.4624
0.38	0.4792
0.4	0.496
0.42	0.5128
0.44	0.5296
0.46	0.5464
0.48	0.5632
0.5	0.58
0	0.18
0.0144338	0.2005
0.0288675	0.221
0.0433013	0.2415
0.057735	0.262
0.0721688	0.2825
0.0866025	0.303
0.101036	0.3235
0.11547	0.344
0.129904	0.3645
0.144338	0.385
0.158771	0.4055
0.173205	0.426
0.187639	0.4465
0.202073	0.467
0.216506	0.4875
0.23094	0.508
0.245374	0.5285
0.259808	0.549
0.274241	0.5695
0	0.18
0.02	0.1964
0.04	0.2128
0.06	0.2292
0.08	0.2456
0.1	0.262
0.12	0.2784
0.14	0.2948
0.16	0.3112
0.18	0.3276
0.2	0.344
0.22	0.3604
0.24	0.3768
0.26	0.3932
0.28	0.4096
0.3	0.426
0.32	0.4424
0.34	0.4588
0.36	0.4752
0.38	0.4916
0.4	0.508
0.42	0.5244
0.44	0.5408
0.46	0.5572
0.48	0.5736
0.5	0.59
0	0.2
0.0144338	0.22
0.0288675	0.24
0.0433013	0.26
0.057735	0.28
0.0721688	0.3
0.0866025	0.32
0.101036	0.34
0.11547	0.36
0.129904	0.38
0.144338	0.4
0.158771	0.42
0.173205	0.44
0.187639	0.46
0.202073	0.48
0.216506	0.5
0.23094	0.52
0.245374	0.54
0.259808	0.56
0.274241	0.58
0	0.2
0.02	0.216
0.04	0.232
0.06	0.248
0.08	0.264
0.1	0.28
0.12	0.296
0.14	0.312
0.16	0.328
0.18	0.344
0.2	0.36
0.22	0.376
0.24	0.392
0.26	0.408
0.28	0.424
0.3	0.44
0.32	0.456
0.34	0.472
0.36	0.488
0.38	0.504
0.4	0.52
0.42	0.536
0.44	0.552
0.46	0.568
0.48	0.584
0.5	0.6
0	0.22
0.0144338	0.2395
0.0288675	0.259
0.0433013	0.2785
0.057735	0.298
0.0721688	0.3175
0.0866025	0.337
0.101036	0.3565
0.11547	0.376
0.129904	0.3955
0.144338	0.415
0.158771	0.4345
0.173205	0.454
0.187639	0.4735
0.202073	0.493
0.216506	0.5125
0.23094	0.532
0.245374	0.5515
0.259808	0.571
0.274241	0.5905
0	0.22
0.02	0.2356
0.04	0.2512
0.06	0.2668
0.08	0.2824
0.1	0.298
0.12	0.3136
0.14	0.3292
0.16	0.3448
0.18	0.3604
0.2	0.376
0.22	0.3916
0.24	0.4072
0.26	0.4228
0.28	0.4384
0.3	0.454
0.32	0.4696
0.34	0.4852
0.36	0.5008
0.38	0.5164
0.4	0.532
0.42	0.5476
0.44	0.5632
0.46	0.5788
0.48	0.5944
0.5	0.61
0	0.24
0.0144338	0.259
0.0288675	0.278
0.0433013	0.297
0.057735	0.316
0.0721688	0.335
0.0866025	0.354
0.101036	0.373
0.11547	0.392
0.129904	0.411
0.144338	0.43
0.158771	0.449
0.173205	0.468
0.187639	0.487
0.202073	0.506
0.216506	0.525
0.23094	0.544
0.245374	0.563
0.259808	0.582
0.274241	0.601
0	0.24
0.02	0.2552
0.04	0.2704
0.06	0.2856
0.08	0.3008
0.1	0.316
0.12	0.3312
0.14	0.3464
0.16	0.3616
0.18	0.3768
0.2	0.392
0.22	0.4072
0.24	0.4224
0.26	0.4376
0.28	0.4528
0.3	0.468
0.32	0.4832
0.34	0.4984
0.36	0.5136
0.38	0.5288
0.4	0.544
0.42	0.5592
0.44	0.5744
0.46	0.5896
0.48	0.6048
0.5	0.62
0	0.26
0.0144338	0.2785
0.0288675	0.297
0.0433013	0.3155
0.057735	0.334
0.0721688	0.3525
0.0866025	0.371
0.101036	0.3895
0.11547	0.408
0.129904	0.4265
0.144338	0.445
0.158771	0.4635
0.173205	0.482
0.187639	0.5005
0.202073	0.519
0.216506	0.5375
0.23094	0.556
0.245374	0.5745
0.259808	0.593
0.274241	0.6115
0	0.26
0.02	0.2748
0.04	0.2896
0.06	0.3044
0.08	0.3192
0.1	0.334
0.12	0.3488
0.14	0.3636
0.16	0.3784
0.18	0.3932
0.2	0.408
0.22	0.4228
0.24	0.4376
0.26	0.4524
0.28	0.4672
0.3	0.482
0.32	0.4968
0.34	0.5116
0.36	0.5264
0.38	0.5412
0.4	0.556
0.42	0.5708
0.44	0.5856
0.46	0.6004
0.48	0.6152
0.5	0.63
0	0.28
0.0144338	0.298
0.0288675	0.316
0.0433013	0.334
0.057735	0.352
0.0721688	0.37
0.0866025	0.388
0.101036	0.406
0.11547	0.424
0.129904	0.442
0.144338	0.46
0.158771	0.478
0.173205	0.496
0.187639	0.514
0.202073	0.532
0.216506	0.55
0.23094	0.568
0.245374	0.586
0.259808	0.604
0.274241	0.622
0	0.28
0.02	0.2944
0.04	0.3088
0.06	0.3232
0.08	0.3376
0.1	0.352
0.12	0.3664
0.14	0.3808
0.16	0.3952
0.18	0.4096
0.2	0.424
0.22	0.4384
0.24	0.4528
0.26	0.4672
0.28	0.4816
0.3	0.496
0.32	0.5104
0.34	0.5248
0.36	0.5392
0.38	0.5536
0.4	0.568
0.42	0.5824
0.44	0.5968
0.46	0.6112
0.48	0.6256
0.5	0.64
0	0.3
0.0144338	0.3175
0.0288675	0.335
0.0433013	0.3525
0.057735	0.37
0.0721688	0.3875
0.0866025	0.405
0.101036	0.4225
0.11547	0.44
0.129904	0.4575
0.144338	0.475
0.158771	0.4925
0.173205	0.51
0.187639	0.5275
0.202073	0.545
0.216506	0.5625
0.23094	0.58
0.245374	0.5975
0.259808	0.615
0.274241	0.6325
0	0.3
0.02	0.314
0.04	0.328
0.06	0.342
0.08	0.356
0.1	0.37
0.12	0.384
0.14	0.398
0.16	0.412
0.18	0.426
0.2	0.44
0.22	0.454
0.24	0.468
0.26	0.482
0.28	0.496
0.3	0.51
0.32	0.524
0.34	0.538
0.36	0.552
0.38	0.566
0.4	0.58
0.42	0.594
0.44	0.608
0.46	0.622
0.48	0.636
0.5	0.65
0	0.32
0.0144338	0.337
0.0288675	0.354
0.0433013	0.371
0.057735	0.388
0.0721688	0.405
0.0866025	0.422
0.101036	0.439
0.11547	0.456
0.129904	0.473
0.144338	0.49
0.158771	0.507
0.173205	0.524
0.187639	0.541
0.202073	0.558
0.216506	0.575
0.23094	0.592
0.245374	0.609
0.259808	0.626
0.274241	0.643
0	0.32
0.02	0.3336
0.04	0.3472
0.06	0.3608
0.08	0.3744
0.1	0.388
0.12	0.4016
0.14	0.4152
0.16	0.4288
0.18	0.4424
0.2	0.456
0.22	0.4696
0.24	0.4832
0.26	0.4968
0.28	0.5104
0.3	0.524
0.32	0.5376
0.34	0.5512
0.36	0.5648
0.38	0.5784
0.4	0.592
0.42	0.6056
0.44	0.6192
0.46	0.6328
0.48	0.6464
0.5	0.66
0	0.34
0.0144338	0.3565
0.0288675	0.373
0.0433013	0.3895
0.057735	0.406
0.0721688	0.4225
0.0866025	0.439
0.101036	0.4555
0.11547	0.472
0.129904	0.4885
0.144338	0.505
0.158771	0.5215
0.173205	0.538
0.187639	0.5545
0.202073	0.571
0.216506	0.5875
0.23094	0.604
0.245374	0.6205
0.259808	0.637
0.274241	0.6535
0	0.34
0.02	0.3532
0.04	0.3664
0.06	0.3796
0.08	0.3928
0.1	0.406
0.12	0.4192
0.14	0.4324
0.16	0.4456
0.18	0.4588
0.2	0.472
0.22	0.4852
0.24	0.4984
0.26	0.5116
0.28	0.5248
0.3	0.538
0.32	0.5512
0.34	0.5644
0.36	0.5776
0.38	0.5908
0.4	0.604
0.42	0.6172
0.44	0.6304
0.46	0.6436
0.48	0.6568
0.5	0.67
0	0.36
0.0144338	0.376
0.0288675	0.392
0.0433013	0.408
0.057735	0.424
0.0721688	0.44
0.0866025	0.456
0.101036	0.472
0.11547	0.488
0.129904	0.504
0.144338	0.52
0.158771	0.536
0.173205	0.552
0.187639	0.568
0.202073	0.584
0.216506	0.6
0.23094	0.616
0.245374	0.632
0.259808	0.648
0.274241	0.664
0	0.36
0.02	0.3728
0.04	0.3856
0.06	0.3984
0.08	0.4112
0.1	0.424
0.12	0.4368
0.14	0.4496
0.16	0.4624
0.18	0.4752
0.2	0.488
0.22	0.5008
0.24	0.5136
0.26	0.5264
0.28	0.5392
0.3	0.552
0.32	0.5648
0.34	0.5776
0.36	0.5904
0.38	0.6032
0.4	0.616
0.42	0.6288
0.44	0.6416
0.46	0.6544
0.48	0.6672
0.5	0.68
0	0.38
0.0144338	0.3955
0.0288675	0.411
0.0433013	0.4265
0.057735	0.442
0.0721688	0.4575
0.0866025	0.473
0.101036	0.4885
0.11547	0.504
0.129904	0.5195
0.144338	0.535
0.158771	0.5505
0.173205	0.566
0.187639	0.5815
0.202073	0.597
0.216506	0.6125
0.23094	0.628
0.245374	0.6435
0.259808	0.659
0.274241	0.6745
0	0.38
0.02	0.3924
0.04	0.4048
0.06	0.4172
0.08	0.4296
0.1	0.442
0.12	0.4544
0.14	0.4668
0.16	0.4792
0.18	0.4916
0.2	0.504
0.22	0.5164
0.24	0.5288
0.26	0.5412
0.28	0.5536
0.3	0.566
0.32	0.5784
0.34	0.5908
0.36	0.6032
0.38	0.6156
0.4	0.628
0.42	0.6404
0.44	0.6528
0.46	0.6652
0.48	0.6776
0.5	0.69
0	0.4
0.0144338	0.415
0.0288675	0.43
0.0433013	0.445
0.057735	0.46
0.0721688	0.475
0.0866025	0.49
0.101036	0.505
0.11547	0.52
0.129904	0.535
0.144338	0.55
0.158771	0.565
0.173205	0.58
0.187639	0.595
0.202073	0.61
0.216506	0.625
0.23094	0.64
0.245374	0.655
0.259808	0.67
0.274241	0.685
0	0.4
0.02	0.412
0.04	0.424
0.06	0.436
0.08	0.448
0.1	0.46
0.12	0.472
0.14	0.484
0.16	0.496
0.18	0.508
0.2	0.52
0.22	0.532
0.24	0.544
0.26	0.556
0.28	0.568
0.3	0.58
0.32	0.592
0.34	0.604
0.36	0.616
0.38	0.628
0.4	0.64
0.42	0.652
0.44	0.664
0.46	0.676
0.48	0.688
0.5	0.7
0	0.42
0.0144338	0.4345
0.0288675	0.449
0.0433013	0.4635
0.057735	0.478
0.0721688	0.4925
0.0866025	0.507
0.101036	0.5215
0.11547	0.536
0.129904	0.5505
0.144338	0.565
0.158771	0.5795
0.173205	0.594
0.187639	0.6085
0.202073	0.623
0.216506	0.6375
0.23094	0.652
0.245374	0.6665
0.259808	0.681
0.274241	0.6955
0	0.42
0.02	0.4316
0.04	0.4432
0.06	0.4548
0.08	0.4664
0.1	0.478
0.12	0.4896
0.14	0.5012
0.16	0.5128
0.18	0.5244
0.2	0.536
0.22	0.5476
0.24	0.5592
0.26	0.5708
0.28	0.5824
0.3	0.594
0.32	0.6056
0.34	0.6172
0.36	0.6288
0.38	0.6404
0.4	0.652
0.42	0.6636
0.44	0.6752
0.46	0.6868
0.48	0.6984
0.5	0.71
0	0.44
0.0144338	0.454
0.0288675	0.468
0.0433013	0.482
0.057735	0.496
0.0721688	0.51
0.0866025	0.524
0.101036	0.538
0.11547	0.552
0.129904	0.566
0.144338	0.58
0.158771	0.594
0.173205	0.608
0.187639	0.622
0.202073	0.636
0.216506	0.65
0.23094	0.664
0.245374	0.678
0.259808	0.692
0.274241	0.706
0	0.44
0.02	0.4512
0.04	0.4624
0.06	0.4736
0.08	0.4848
0.1	0.496
0.12	0.5072
0.14	0.5184
0.16	0.5296
0.18	0.5408
0.2	0.552
0.22	0.5632
0.24	0.5744
0.26	0.5856
0.28	0.5968
0.3	0.608
0.32	0.6192
0.34	0.6304
0.36	0.6416
0.38	0.6528
0.4	0.664
0.42	0.6752
0.44	0.6864
0.46	0.6976
0.48	0.7088
0.5	0.72
0	0.46
0.0144338	0.4735
0.0288675	0.487
0.0433013	0.5005
0.057735	0.514
0.0721688	0.5275
0.0866025	0.541
0.101036	0.5545
0.11547	0.568
0.129904	0.5815
0.144338	0.595
0.158771	0.6085
0.173205	0.622
0.187639	0.6355
0.202073	0.649
0.216506	0.6625
0.23094	0.676
0.245374	0.6895
0.259808	0.703
0.274241	0.7165
0	0.46
0.02	0.4708
0.04	0.4816
0.06	0.4924
0.08	0.5032
0.1	0.514
0.12	0.5248
0.14	0.5356
0.16	0.5464
0.18	0.5572
0.2	0.568
0.22	0.5788
0.24	0.5896
0.26	0.6004
0.28	0.6112
0.3	0.622
0.32	0.6328
0.34	0.6436
0.36	0.6544
0.38	0.6652
0.4	0.676
0.42	0.6868
0.44	0.6976
0.46	0.7084
0.48	0.7192
0.5	0.73
0	0.48
0.0144338	0.493
0.0288675	0.506
0.0433013	0.519
0.057735	0.532
0.0721688	0.545
0.0866025	0.558
0.101036	0.571
0.11547	0.584
0.129904	0.597
0.144338	0.61
0.158771	0.623
0.173205	0.636
0.187639	0.649
0.202073	0.662
0.216506	0.675
0.23094	0.688
0.245374	0.701
0.259808	0.714
0.274241	0.727
0	0.48
0.02	0.4904
0.04	0.5008
0.06	0.5112
0.08	0.5216
0.1	0.532
0.12	0.5424
0.14	0.5528
0.16	0.5632
0.18	0.5736
0.2	0.584
0.22	0.5944
0.24	0.6048
0.26	0.6152
0.28	0.6256
0.3	0.636
0.32	0.6464
0.34	0.6568
0.36	0.6672
0.38	0.6776
0.4	0.688
0.42	0.6984
0.44	0.7088
0.46	0.7192
0.48	0.7296
0.5	0.74
0	0.5
0.0144338	0.5125
0.0288675	0.525
0.0433013	0.5375
0.057735	0.55
0.0721688	0.5625
0.0866025	0.575
0.101036	0.5875
0.11547	0.6
0.129904	0.6125
0.144338	0.625
0.158771	0.6375
0.173205	0.65
0.187639	0.6625
0.202073	0.675
0.216506	0.6875
0.23094	0.7
0.245374	0.7125
0.259808	0.725
0.274241	0.7375
0	0.5
0.02	0.51
0.04	0.52
0.06	0.53
0.08	0.54
0.1	0.55
0.12	0.56
0.14	0.57
0.16	0.58
0.18	0.59
0.2	0.6
0.22	0.61
0.24	0.62
0.26	0.63
0.28	0.64
0.3	0.65
0.32	0.66
0.34	0.67
0.36	0.68
0.38	0.69
0.4	0.7
0.42	0.71
0.44	0.72
0.46	0.73
0.48	0.74
0.5	0.75
0	0.52
0.0144338	0.532
0.0288675	0.544
0.0433013	0.556
0.057735	0.568
0.0721688	0.58
0.0866025	0.592
0.101036	0.604
0.11547	0.616
0.129904	0.628
0.144338	0.64
0.158771	0.652
0.173205	0.664
0.187639	0.676
0.202073	0.688
0.216506	0.7
0.23094	0.712
0.245374	0.724
0.259808	0.736
0.274241	0.748
0	0.52
0.02	0.5296
0.04	0.5392
0.06	0.5488
0.08	0.5584
0.1	0.568
0.12	0.5776
0.14	0.5872
0.16	0.5968
0.18	0.6064
0.2	0.616
0.22	0.6256
0.24	0.6352
0.26	0.6448
0.28	0.6544
0.3	0.664
0.32	0.6736
0.34	0.6832
0.36	0.6928
0.38	0.7024
0.4	0.712
0.42	0.7216
0.44	0.7312
0.46	0.7408
0.48	0.7504
0.5	0.76
0	0.54
0.0144338	0.5515
0.0288675	0.563
0.0433013	0.5745
0.057735	0.586
0.0721688	0.5975
0.0866025	0.609
0.101036	0.6205
0.11547	0.632
0.129904	0.6435
0.144338	0.655
0.158771	0.6665
0.173205	0.678
0.187639	0.6895
0.202073	0.701
0.216506	0.7125
0.23094	0.724
0.245374	0.7355
0.259808	0.747
0.274241	0.7585
0	0.54
0.02	0.5492
0.04	0.5584
0.06	0.5676
0.08	0.5768
0.1	0.586
0.12	0.5952
0.14	0.6044
0.16	0.6136
0.18	0.6228
0.2	0.632
0.22	0.6412
0.24	0.6504
0.26	0.6596
0.28	0.6688
0.3	0.678
0.32	0.6872
0.34	0.6964
0.36	0.7056
0.38	0.7148
0.4	0.724
0.42	0.7332
0.44	0.7424
0.46	0.7516
0.48	0.7608
0.5	0.77
0	0.56
0.0144338	0.571
0.0288675	0.582
0.0433013	0.593
0.057735	0.604
0.0721688	0.615
0.0866025	0.626
0.101036	0.637
0.11547	0.648
0.129904	0.659
0.144338	0.67
0.158771	0.681
0.173205	0.692
0.187639	0.703
0.202073	0.714
0.216506	0.725
0.23094	0.736
0.245374	0.747
0.259808	0.758
0.274241	0.769
0	0.56
0.02	0.5688
0.04	0.5776
0.06	0.5864
0.08	0.5952
0.1	0.604
0.12	0.6128
0.14	0.6216
0.16	0.6304
0.18	0.6392
0.2	0.648
0.22	0.6568
0.24	0.6656
0.26	0.6744
0.28	0.6832
0.3	0.692
0.32	0.7008
0.34	0.7096
0.36	0.7184
0.38	0.7272
0.4	0.736
0.42	0.7448
0.44	0.7536
0.46	0.7624
0.48	0.7712
0.5	0.78
0	0.58
0.0144338	0.5905
0.0288675	0.601
0.0433013	0.6115
0.057735	0.622
0.0721688	0.6325
0.0866025	0.643
0.101036	0.6535
0.11547	0.664
0.129904	0.6745
0.144338	0.685
0.158771	0.6955
0.173205	0.706
0.187639	0.7165
0.202073	0.727
0.216506	0.7375
0.23094	0.748
0.245374	0.7585
0.259808	0.769
0.274241	0.7795
0	0.58
0.02	0.5884
0.04	0.5968
0.06	0.6052
0.08	0.6136
0.1	0.622
0.12	0.6304
0.14	0.6388
0.16	0.6472
0.18	0.6556
0.2	0.664
0.22	0.6724
0.24	0.6808
0.26	0.6892
0.28	0.6976
0.3	0.706
0.32	0.7144
0.34	0.7228
0.36	0.7312
0.38	0.7396
0.4	0.748
0.42	0.7564
0.44	0.7648
0.46	0.7732
0.48	0.7816
0.5	0.79
0	0.6
0.0144338	0.61
0.0288675	0.62
0.0433013	0.63
0.057735	0.64
0.0721688	0.65
0.0866025	0.66
0.101036	0.67
0.11547	0.68
0.129904	0.69
0.144338	0.7
0.158771	0.71
0.173205	0.72
0.187639	0.73
0.202073	0.74
0.216506	0.75
0.23094	0.76
0.245374	0.77
0.259808	0.78
0.274241	0.79
0	0.6
0.02	0.608
0.04	0.616
0.06	0.624
0.08	0.632
0.1	0.64
0.12	0.648
0.14	0.656
0.16	0.664
0.18	0.672
0.2	0.68
0.22	0.688
0.24	0.696
0.26	0.704
0.28	0.712
0.3	0.72
0.32	0.728
0.34	0.736
0.36	0.744
0.38	0.752
0.4	0.76
0.42	0.768
0.44	0.776
0.46	0.784
0.48	0.792
0.5	0.8
0	0.62
0.0144338	0.6295
0.0288675	0.639
0.0433013	0.6485
0.057735	0.658
0.0721688	0.6675
0.0866025	0.677
0.101036	0.6865
0.11547	0.696
0.129904	0.7055
0.144338	0.715
0.158771	0.7245
0.173205	0.734
0.187639	0.7435
0.202073	0.753
0.216506	0.7625
0.23094	0.772
0.245374	0.7815
0.259808	0.791
0.274241	0.8005
0	0.62
0.02	0.6276
0.04	0.6352
0.06	0.6428
0.08	0.6504
0.1	0.658
0.12	0.6656
0.14	0.6732
0.16	0.6808
0.18	0.6884
0.2	0.696
0.22	0.7036
0.24	0.7112
0.26	0.7188
0.28	0.7264
0.3	0.734
0.32	0.7416
0.34	0.7492
0.36	0.7568
0.38	0.7644
0.4	0.772
0.42	0.7796
0.44	0.7872
0.46	0.7948
0.48	0.8024
0.5	0.81
0	0.64
0.0144338	0.649
0.0288675	0.658
0.0433013	0.667
0.057735	0.676
0.0721688	0.685
0.0866025	0.694
0.101036	0.703
0.11547	0.712
0.129904	0.721
0.144338	0.73
0.158771	0.739
0.173205	0.748
0.187639	0.757
0.202073	0.766
0.216506	0.775
0.23094	0.784
0.245374	0.793
0.259808	0.802
0.274241	0.811
0	0.64
0.02	0.6472
0.04	0.6544
0.06	0.6616
0.08	0.6688
0.1	0.676
0.12	0.6832
0.14	0.6904
0.16	0.6976
0.18	0.7048
0.2	0.712
0.22	0.7192
0.24	0.7264
0.26	0.7336
0.28	0.7408
0.3	0.748
0.32	0.7552
0.34	0.7624
0.36	0.7696
0.38	0.7768
0.4	0.784
0.42	0.7912
0.44	0.7984
0.46	0.8056
0.48	0.8128
0.5	0.82
0	0.66
0.0144338	0.6685
0.0288675	0.677
0.0433013	0.6855
0.057735	0.694
0.0721688	0.7025
0.0866025	0.711
0.101036	0.7195
0.11547	0.728
0.129904	0.7365
0.144338	0.745
0.158771	0.7535
0.173205	0.762
0.187639	0.7705
0.202073	0.779
0.216506	0.7875
0.23094	0.796
0.245374	0.8045
0.259808	0.813
0.274241	0.8215
0	0.66
0.02	0.6668
0.04	0.6736
0.06	0.6804
0.08	0.6872
0.1	0.694
0.12	0.7008
0.14	0.7076
0.16	0.7144
0.18	0.7212
0.2	0.728
0.22	0.7348
0.24	0.7416
0.26	0.7484
0.28	0.7552
0.3	0.762
0.32	0.7688
0.34	0.7756
0.36	0.7824
0.38	0.7892
0.4	0.796
0.42	0.8028
0.44	0.8096
0.46	0.8164
0.48	0.8232
0.5	0.83
0	0.68
0.0144338	0.688
0.0288675	0.696
0.0433013	0.704
0.057735	0.712
0.0721688	0.72
0.0866025	0.728
0.101036	0.736
0.11547	0.744
0.129904	0.752
0.144338	0.76
0.158771	0.768
0.173205	0.776
0.187639	0.784
0.202073	0.792
0.216506	0.8
0.23094	0.808
0.245374	0.816
0.259808	0.824
0.274241	0.832
0	0.68
0.02	0.6864
0.04	0.6928
0.06	0.6992
0.08	0.7056
0.1	0.712
0.12	0.7184
0.14	0.7248
0.16	0.7312
0.18	0.7376
0.2	0.744
0.22	0.7504
0.24	0.7568
0.26	0.7632
0.28	0.7696
0.3	0.776
0.32	0.7824
0.34	0.7888
0.36	0.7952
0.38	0.8016
0.4	0.808
0.42	0.8144
0.44	0.8208
0.46	0.8272
0.48	0.8336
0.5	0.84
0	0.7
0.0144338	0.7075
0.0288675	0.715
0.0433013	0.7225
0.057735	0.73
0.0721688	0.7375
0.0866025	0.745
0.101036	0.7525
0.11547	0.76
0.129904	0.7675
0.144338	0.775
0.158771	0.7825
0.173205	0.79
0.187639	0.7975
0.202073	0.805
0.216506	0.8125
0.23094	0.82
0.245374	0.8275
0.259808	0.835
0.274241	0.8425
0	0.7
0.02	0.706
0.04	0.712
0.06	0.718
0.08	0.724
0.1	0.73
0.12	0.736
0.14	0.742
0.16	0.748
0.18	0.754
0.2	0.76
0.22	0.766
0.24	0.772
0.26	0.778
0.28	0.784
0.3	0.79
0.32	0.796
0.34	0.802
0.36	0.808
0.38	0.814
0.4	0.82
0.42	0.826
0.44	0.832
0.46	0.838
0.48	0.844
0.5	0.85
0	0.72
0.0144338	0.727
0.0288675	0.734
0.0433013	0.741
0.057735	0.748
0.0721688	0.755
0.0866025	0.762
0.101036	0.769
0.11547	0.776
0.129904	0.783
0.144338	0.79
0.158771	0.797
0.173205	0.804
0.187639	0.811
0.202073	0.818
0.216506	0.825
0.23094	0.832
0.245374	0.839
0.259808	0.846
0.274241	0.853
0	0.72
0.02	0.7256
0.04	0.7312
0.06	0.7368
0.08	0.7424
0.1	0.748
0.12	0.7536
0.14	0.7592
0.16	0.7648
0.18	0.7704
0.2	0.776
0.22	0.7816
0.24	0.7872
0.26	0.7928
0.28	0.7984
0.3	0.804
0.32	0.8096
0.34	0.8152
0.36	0.8208
0.38	0.8264
0.4	0.832
0.42	0.8376
0.44	0.8432
0.46	0.8488
0.48	0.8544
0.5	0.86
0	0.74
0.0144338	0.7465
0.0288675	0.753
0.0433013	0.7595
0.057735	0.766
0.0721688	0.7725
0.0866025	0.779
0.101036	0.7855
0.11547	0.792
0.129904	0.7985
0.144338	0.805
0.158771	0.8115
0.173205	0.818
0.187639	0.8245
0.202073	0.831
0.216506	0.8375
0.23094	0.844
0.245374	0.8505
0.259808	0.857
0.274241	0.8635
0	0.74
0.02	0.7452
0.04	0.7504
0.06	0.7556
0.08	0.7608
0.1	0.766
0.12	0.7712
0.14	0.7764
0.16	0.7816
0.18	0.7868
0.2	0.792
0.22	0.7972
0.24	0.8024
0.26	0.8076
0.28	0.8128
0.3	0.818
0.32	0.8232
0.34	0.8284
0.36	0.8336
0.38	0.8388
0.4	0.844
0.42	0.8492
0.44	0.8544
0.46	0.8596
0.48	0.8648
0.5	0.87
0	0.76
0.0144338	0.766
0.0288675	0.772
0.0433013	0.778
0.057735	0.784
0.0721688	0.79
0.0866025	0.796
0.101036	0.802
0.11547	0.808
0.129904	0.814
0.144338	0.82
0.158771	0.826
0.173205	0.832
0.187639	0.838
0.202073	0.844
0.216506	0.85
0.23094	0.856
0.245374	0.862
0.259808	0.868
0.274241	0.874
0	0.76
0.02	0.7648
0.04	0.7696
0.06	0.7744
0.08	0.7792
0.1	0.784
0.12	0.7888
0.14	0.7936
0.16	0.7984
0.18	0.8032
0.2	0.808
0.22	0.8128
0.24	0.8176
0.26	0.8224
0.28	0.8272
0.3	0.832
0.32	0.8368
0.34	0.8416
0.36	0.8464
0.38	0.8512
0.4	0.856
0.42	0.8608
0.44	0.8656
0.46	0.8704
0.48	0.8752
0.5	0.88
0	0.78
0.0144338	0.7855
0.0288675	0.791
0.0433013	0.7965
0.057735	0.802
0.0721688	0.8075
0.0866025	0.813
0.101036	0.8185
0.11547	0.824
0.129904	0.8295
0.144338	0.835
0.158771	0.8405
0.173205	0.846
0.187639	0.8515
0.202073	0.857
0.216506	0.8625
0.23094	0.868
0.245374	0.8735
0.259808	0.879
0.274241	0.8845
0	0.78
0.02	0.7844
0.04	0.7888
0.06	0.7932
0.08	0.7976
0.1	0.802
0.12	0.8064
0.14	0.8108
0.16	0.8152
0.18	0.8196
0.2	0.824
0.22	0.8284
0.24	0.8328
0.26	0.8372
0.28	0.8416
0.3	0.846
0.32	0.8504
0.34	0.8548
0.36	0.8592
0.38	0.8636
0.4	0.868
0.42	0.8724
0.44	0.8768
0.46	0.8812
0.48	0.8856
0.5	0.89
0	0.8
0.0144338	0.805
0.0288675	0.81
0.0433013	0.815
0.057735	0.82
0.0721688	0.825
0.0866025	0.83
0.101036	0.835
0.11547	0.84
0.129904	0.845
0.144338	0.85
0.158771	0.855
0.173205	0.86
0.187639	0.865
0.202073	0.87
0.216506	0.875
0.23094	0.88
0.245374	0.885
0.259808	0.89
0.274241	0.895
0	0.8
0.02	0.804
0.04	0.808
0.06	0.812
0.08	0.816
0.1	0.82
0.12	0.824
0.14	0.828
0.16	0.832
0.18	0.836
0.2	0.84
0.22	0.844
0.24	0.848
0.26	0.852
0.28	0.856
0.3	0.86
0.32	0.864
0.34	0.868
0.36	0.872
0.38	0.876
0.4	0.88
0.42	0.884
0.44	0.888
0.46	0.892
0.48	0.896
0.5	0.9
0	0.82
0.0144338	0.8245
0.0288675	0.829
0.0433013	0.8335
0.057735	0.838
0.0721688	0.8425
0.0866025	0.847
0.101036	0.8515
0.11547	0.856
0.129904	0.8605
0.144338	0.865
0.158771	0.8695
0.173205	0.874
0.187639	0.8785
0.202073	0.883
0.216506	0.8875
0.23094	0.892
0.245374	0.8965
0.259808	0.901
0.274241	0.9055
0	0.82
0.02	0.8236
0.04	0.8272
0.06	0.8308
0.08	0.8344
0.1	0.838
0.12	0.8416
0.14	0.8452
0.16	0.8488
0.18	0.8524
0.2	0.856
0.22	0.8596
0.24	0.8632
0.26	0.8668
0.28	0.8704
0.3	0.874
0.32	0.8776
0.34	0.8812
0.36	0.8848
0.38	0.8884
0.4	0.892
0.42	0.8956
0.44	0.8992
0.46	0.9028
0.48	0.9064
0.5	0.91
0	0.84
0.0144338	0.844
0.0288675	0.848
0.0433013	0.852
0.057735	0.856
0.0721688	0.86
0.0866025	0.864
0.101036	0.868
0.11547	0.872
0.129904	0.876
0.144338	0.88
0.158771	0.884
0.173205	0.888
0.187639	0.892
0.202073	0.896
0.216506	0.9
0.23094	0.904
0.245374	0.908
0.259808	0.912
0.274241	0.916
0	0.84
0.02	0.8432
0.04	0.8464
0.06	0.8496
0.08	0.8528
0.1	0.856
0.12	0.8592
0.14	0.8624
0.16	0.8656
0.18	0.8688
0.2	0.872
0.22	0.8752
0.24	0.8784
0.26	0.8816
0.28	0.8848
0.3	0.888
0.32	0.8912
0.34	0.8944
0.36	0.8976
0.38	0.9008
0.4	0.904
0.42	0.9072
0.44	0.9104
0.46	0.9136
0.48	0.9168
0.5	0.92
0	0.86
0.0144338	0.8635
0.0288675	0.867
0.0433013	0.8705
0.057735	0.874
0.0721688	0.8775
0.0866025	0.881
0.101036	0.8845
0.11547	0.888
0.129904	0.8915
0.144338	0.895
0.158771	0.8985
0.173205	0.902
0.187639	0.9055
0.202073	0.909
0.216506	0.9125
0.23094	0.916
0.245374	0.9195
0.259808	0.923
0.274241	0.9265
0	0.86
0.02	0.8628
0.04	0.8656
0.06	0.8684
0.08	0.8712
0.1	0.874
0.12	0.8768
0.14	0.8796
0.16	0.8824
0.18	0.8852
0.2	0.888
0.22	0.8908
0.24	0.8936
0.26	0.8964
0.28	0.8992
0.3	0.902
0.32	0.9048
0.34	0.9076
0.36	0.9104
0.38	0.9132
0.4	0.916
0.42	0.9188
0.44	0.9216
0.46	0.9244
0.48	0.9272
0.5	0.93
0	0.88
0.0144338	0.883
0.0288675	0.886
0.0433013	0.889
0.057735	0.892
0.0721688	0.895
0.0866025	0.898
0.101036	0.901
0.11547	0.904
0.129904	0.907
0.144338	0.91
0.158771	0.913
0.173205	0.916
0.187639	0.919
0.202073	0.922
0.216506	0.925
0.23094	0.928
0.245374	0.931
0.259808	0.934
0.274241	0.937
0	0.88
0.02	0.8824
0.04	0.8848
0.06	0.8872
0.08	0.8896
0.1	0.892
0.12	0.8944
0.14	0.8968
0.16	0.8992
0.18	0.9016
0.2	0.904
0.22	0.9064
0.24	0.9088
0.26	0.9112
0.28	0.9136
0.3	0.916
0.32	0.9184
0.34	0.9208
0.36	0.9232
0.38	0.9256
0.4	0.928
0.42	0.9304
0.44	0.9328
0.46	0.9352
0.48	0.9376
0.5	0.94
0	0.9
0.0144338	0.9025
0.0288675	0.905
0.0433013	0.9075
0.057735	0.91
0.0721688	0.9125
0.0866025	0.915
0.101036	0.9175
0.11547	0.92
0.129904	0.9225
0.144338	0.925
0.158771	0.9275
0.173205	0.93
0.187639	0.9325
0.202073	0.935
0.216506	0.9375
0.23094	0.94
0.245374	0.9425
0.259808	0.945
0.274241	0.9475
0	0.9
0.02	0.902
0.04	0.904
0.06	0.906
0.08	0.908
0.1	0.91
0.12	0.912
0.14	0.914
0.16	0.916
0.18	0.918
0.2	0.92
0.22	0.922
0.24	0.924
0.26	0.926
0.28	0.928
0.3	0.93
0.32	0.932
0.34	0.934
0.36	0.936
0.38	0.938
0.4	0.94
0.42	0.942
0.44	0.944
0.46	0.946
0.48	0.948
0.5	0.95
0	0.92
0.0144338	0.922
0.0288675	0.924
0.0433013	0.926
0.057735	0.928
0.0721688	0.93
0.0866025	0.932
0.101036	0.934
0.11547	0.936
0.129904	0.938
0.144338	0.94
0.158771	0.942
0.173205	0.944
0.187639	0.946
0.202073	0.948
0.216506	0.95
0.23094	0.952
0.245374	0.954
0.259808	0.956
0.274241	0.958
0	0.92
0.02	0.9216
0.04	0.9232
0.06	0.9248
0.08	0.9264
0.1	0.928
0.12	0.9296
0.14	0.9312
0.16	0.9328
0.18	0.9344
0.2	0.936
0.22	0.9376
0.24	0.9392
0.26	0.9408
0.28	0.9424
0.3	0.944
0.32	0.9456
0.34	0.9472
0.36	0.9488
0.38	0.9504
0.4	0.952
0.42	0.9536
0.44	0.9552
0.46	0.9568
0.48	0.9584
0.5	0.96
0	0.94
0.0144338	0.9415
0.0288675	0.943
0.0433013	0.9445
0.057735	0.946
0.0721688	0.9475
0.0866025	0.949
0.101036	0.9505
0.11547	0.952
0.129904	0.9535
0.144338	0.955
0.158771	0.9565
0.173205	0.958
0.187639	0.9595
0.202073	0.961
0.216506	0.9625
0.23094	0.964
0.245374	0.9655
0.259808	0.967
0.274241	0.9685
0	0.94
0.02	0.9412
0.04	0.9424
0.06	0.9436
0.08	0.9448
0.1	0.946
0.12	0.9472
0.14	0.9484
0.16	0.9496
0.18	0.9508
0.2	0.952
0.22	0.9532
0.24	0.9544
0.26	0.9556
0.28	0.9568
0.3	0.958
0.32	0.9592
0.34	0.9604
0.36	0.9616
0.38	0.9628
0.4	0.964
0.42	0.9652
0.44	0.9664
0.46	0.9676
0.48	0.9688
0.5	0.97
0	0.96
0.0144338	0.961
0.0288675	0.962
0.0433013	0.963
0.057735	0.964
0.0721688	0.965
0.0866025	0.966
0.101036	0.967
0.11547	0.968
0.129904	0.969
0.144338	0.97
0.158771	0.971
0.173205	0.972
0.187639	0.973
0.202073	0.974
0.216506	0.975
0.23094	0.976
0.245374	0.977
0.259808	0.978
0.274241	0.979
0	0.96
0.02	0.9608
0.04	0.9616
0.06	0.9624
0.08	0.9632
0.1	0.964
0.12	0.9648
0.14	0.9656
0.16	0.9664
0.18	0.9672
0.2	0.968
0.22	0.9688
0.24	0.9696
0.26	0.9704
0.28	0.9712
0.3	0.972
0.32	0.9728
0.34	0.9736
0.36	0.9744
0.38	0.9752
0.4	0.976
0.42	0.9768
0.44	0.9776
0.46	0.9784
0.48	0.9792
0.5	0.98
0	0.98
0.0144338	0.9805
0.0288675	0.981
0.0433013	0.9815
0.057735	0.982
0.0721688	0.9825
0.0866025	0.983
0.101036	0.9835
0.11547	0.984
0.129904	0.9845
0.144338	0.985
0.158771	0.9855
0.173205	0.986
0.187639	0.9865
0.202073	0.987
0.216506	0.9875
0.23094	0.988
0.245374	0.9885
0.259808	0.989
0.274241	0.9895
0	0.98
0.02	0.9804
0.04	0.9808
0.06	0.9812
0.08	0.9816
0.1	0.982
0.12	0.9824
0.14	0.9828
0.16	0.9832
0.18	0.9836
0.2	0.984
0.22	0.9844
0.24	0.9848
0.26	0.9852
0.28	0.9856
0.3	0.986
0.32	0.9864
0.34	0.9868
0.36	0.9872
0.38	0.9876
0.4	0.988
0.42	0.9884
0.44	0.9888
0.46	0.9892
0.48	0.9896
0.5	0.99
0	1
0.0144338	1
0.0288675	1
0.0433013	1
0.057735	1
0.0721688	1
0.0866025	1
0.101036	1
0.11547	1
0.129904	1
0.144338	1
0.158771	1
0.173205	1
0.187639	1
0.202073	1
0.216506	1
0.23094	1
0.245374	1
0.259808	1
0.274241	1
0	1
0.02	1
0.04	1
0.06	1
0.08	1
0.1	1
0.12	1
0.14	1
0.16	1
0.18	1
0.2	1
0.22	1
0.24	1
0.26	1
0.28	1
0.3	1
0.32	1
0.34	1
0.36	1
0.38	1
0.4	1
0.42	1
0.44	1
0.46	1
0.48	1
0.5	1
