VARIABLES = X Y
ZONE I = 136, J = 51, F = POINT
-0.788675	0
-0.771149	0
-0.753623	0
-0.736097	0
-0.718571	0
-0.701045	0
-0.683518	0
-0.665992	0
-0.648466	0
-0.63094	0
-0.613414	0
-0.595888	0
-0.578362	0
-0.560836	0
-0.54331	0
-0.525783	0
-0.508257	0
-0.490731	0
-0.473205	0
-0.455679	0
-0.438153	0
-0.420627	0
-0.403101	0
-0.385575	0
-0.368048	0
-0.350522	0
-0.332996	0
-0.31547	0
-0.297944	0
-0.280418	0
-0.262892	0
-0.245366	0
-0.227839	0
-0.210313	0
-0.192787	0
-0.175261	0
-0.157735	0
-0.140209	0
-0.122683	0
-0.105157	0
-0.0876306	0
-0.0701045	0
-0.0525783	0
-0.0350522	0
-0.0175261	0
0	0
0.0144338	0.025
0.0288675	0.05
0.0433013	0.075
0.057735	0.1
0.0721688	0.125
0.0866025	0.15
0.101036	0.175
0.11547	0.2
0.129904	0.225
0.144338	0.25
0.158771	0.275
0.173205	0.3
0.187639	0.325
0.202073	0.35
0.216506	0.375
0.23094	0.4
0.245374	0.425
0.259808	0.45
0.274241	0.475
0.288675	0.5
0.308675	0.48
0.328675	0.46
0.348675	0.44
0.368675	0.42
0.388675	0.4
0.408675	0.38
0.428675	0.36
0.448675	0.34
0.468675	0.32
0.488675	0.3
0.508675	0.28
0.528675	0.26
0.548675	0.24
0.568675	0.22
0.588675	0.2
0.608675	0.18
0.628675	0.16
0.648675	0.14
0.668675	0.12
0.688675	0.1
0.708675	0.08
0.728675	0.06
0.748675	0.04
0.768675	0.02
0.788675	0
0.806201	0
0.823727	0
0.841253	0
0.85878	0
0.876306	0
0.893832	0
0.911358	0
0.928884	0
0.94641	0
0.963936	0
0.981462	0
0.998989	0
1.01651	0
1.03404	0
1.05157	0
1.06909	0
1.08662	0
1.10415	0
1.12167	0
1.1392	0
1.15672	0
1.17425	0
1.19178	0
1.2093	0
1.22683	0
1.24435	0
1.26188	0
1.27941	0
1.29693	0
1.31446	0
1.33198	0
1.34951	0
1.36704	0
1.38456	0
1.40209	0
1.41962	0
1.43714	0
1.45467	0
1.47219	0
1.48972	0
1.50725	0
1.52477	0
1.5423	0
1.55982	0
1.57735	0
-0.788675	0.0609855
-0.771149	0.0609855
-0.753623	0.0609855
-0.736097	0.0609855
-0.718571	0.0609855
-0.701045	0.0609855
-0.683518	0.0609855
-0.665992	0.0609855
-0.648466	0.0609855
-0.63094	0.0609855
-0.613414	0.0609855
-0.595888	0.0609855
-0.578362	0.0609855
-0.560836	0.0609855
-0.54331	0.0609855
-0.525783	0.0609855
-0.508257	0.0609855
-0.490731	0.0609855
-0.473205	0.0609855
-0.455679	0.0609855
-0.438153	0.0609855
-0.420627	0.0609855
-0.403101	0.0609855
-0.385575	0.0609855
-0.368048	0.0609855
-0.350522	0.0609855
-0.332996	0.0609855
-0.31547	0.0609855
-0.297944	0.0609855
-0.280418	0.0609855
-0.262892	0.0609855
-0.245366	0.0609855
-0.227839	0.0609855
-0.210313	0.0609855
-0.192787	0.0609855
-0.175261	0.0609855
-0.157735	0.0609855
-0.140209	0.0609855
-0.122683	0.0609855
-0.105157	0.0609855
-0.0876306	0.0609855
-0.0701045	0.0609855
-0.0525783	0.0609855
-0.0350522	0.0609855
-0.0175261	0.0609855
0	0.02
0.0144338	0.0445
0.0288675	0.069
0.0433013	0.0935
0.057735	0.118
0.0721688	0.1425
0.0866025	0.167
0.101036	0.1915
0.11547	0.216
0.129904	0.2405
0.144338	0.265
0.158771	0.2895
0.173205	0.314
0.187639	0.3385
0.202073	0.363
0.216506	0.3875
0.23094	0.412
0.245374	0.4365
0.259808	0.461
0.274241	0.4855
0.288675	0.51
0.308675	0.4904
0.328675	0.4708
0.348675	0.4512
0.368675	0.4316
0.388675	0.412
0.408675	0.3924
0.428675	0.3728
0.448675	0.3532
0.468675	0.3336
0.488675	0.314
0.508675	0.2944
0.528675	0.2748
0.548675	0.2552
0.568675	0.2356
0.588675	0.216
0.608675	0.1964
0.628675	0.1768
0.648675	0.1572
0.668675	0.1376
0.688675	0.118
0.708675	0.0984
0.728675	0.0788
0.748675	0.0592
0.768675	0.0396
0.788675	0.0609855
0.806201	0.0609855
0.823727	0.0609855
0.841253	0.0609855
0.85878	0.0609855
0.876306	0.0609855
0.893832	0.0609855
0.911358	0.0609855
0.928884	0.0609855
0.94641	0.0609855
0.963936	0.0609855
0.981462	0.0609855
0.998989	0.0609855
1.01651	0.0609855
1.03404	0.0609855
1.05157	0.0609855
1.06909	0.0609855
1.08662	0.0609855
1.10415	0.0609855
1.12167	0.0609855
1.1392	0.0609855
1.15672	0.0609855
1.17425	0.0609855
1.19178	0.0609855
1.2093	0.0609855
1.22683	0.0609855
1.24435	0.0609855
1.26188	0.0609855
1.27941	0.0609855
1.29693	0.0609855
1.31446	0.0609855
1.33198	0.0609855
1.34951	0.0609855
1.36704	0.0609855
1.38456	0.0609855
1.40209	0.0609855
1.41962	0.0609855
1.43714	0.0609855
1.45467	0.0609855
1.47219	0.0609855
1.48972	0.0609855
1.50725	0.0609855
1.52477	0.0609855
1.5423	0.0609855
1.55982	0.0609855
1.57735	0.0609855
-0.788675	0.117377
-0.771149	0.117377
-0.753623	0.117377
-0.736097	0.117377
-0.718571	0.117377
-0.701045	0.117377
-0.683518	0.117377
-0.665992	0.117377
-0.648466	0.117377
-0.63094	0.117377
-0.613414	0.117377
-0.595888	0.117377
-0.578362	0.117377
-0.560836	0.117377
-0.54331	0.117377
-0.525783	0.117377
-0.508257	0.117377
-0.490731	0.117377
-0.473205	0.117377
-0.455679	0.117377
-0.438153	0.117377
-0.420627	0.117377
-0.403101	0.117377
-0.385575	0.117377
-0.368048	0.117377
-0.350522	0.117377
-0.332996	0.117377
-0.31547	0.117377
-0.297944	0.117377
-0.280418	0.117377
-0.262892	0.117377
-0.245366	0.117377
-0.227839	0.117377
-0.210313	0.117377
-0.192787	0.117377
-0.175261	0.117377
-0.157735	0.117377
-0.140209	0.117377
-0.122683	0.117377
-0.105157	0.117377
-0.0876306	0.117377
-0.0701045	0.117377
-0.0525783	0.117377
-0.0350522	0.117377
-0.0175261	0.117377
0	0.04
0.0144338	0.064
0.0288675	0.088
0.0433013	0.112
0.057735	0.136
0.0721688	0.16
0.0866025	0.184
0.101036	0.208
0.11547	0.232
0.129904	0.256
0.144338	0.28
0.158771	0.304
0.173205	0.328
0.187639	0.352
0.202073	0.376
0.216506	0.4
0.23094	0.424
0.245374	0.448
0.259808	0.472
0.274241	0.496
0.288675	0.52
0.308675	0.5008
0.328675	0.4816
0.348675	0.4624
0.368675	0.4432
0.388675	0.424
0.408675	0.4048
0.428675	0.3856
0.448675	0.3664
0.468675	0.3472
0.488675	0.328
0.508675	0.3088
0.528675	0.2896
0.548675	0.2704
0.568675	0.2512
0.588675	0.232
0.608675	0.2128
0.628675	0.1936
0.648675	0.1744
0.668675	0.1552
0.688675	0.136
0.708675	0.1168
0.728675	0.0976
0.748675	0.0784
0.768675	0.0592
0.788675	0.117377
0.806201	0.117377
0.823727	0.117377
0.841253	0.117377
0.85878	0.117377
0.876306	0.117377
0.893832	0.117377
0.911358	0.117377
0.928884	0.117377
0.94641	0.117377
0.963936	0.117377
0.981462	0.117377
0.998989	0.117377
1.01651	0.117377
1.03404	0.117377
1.05157	0.117377
1.06909	0.117377
1.08662	0.117377
1.10415	0.117377
1.12167	0.117377
1.1392	0.117377
1.15672	0.117377
1.17425	0.117377
1.19178	0.117377
1.2093	0.117377
1.22683	0.117377
1.24435	0.117377
1.26188	0.117377
1.27941	0.117377
1.29693	0.117377
1.31446	0.117377
1.33198	0.117377
1.34951	0.117377
1.36704	0.117377
1.38456	0.117377
1.40209	0.117377
1.41962	0.117377
1.43714	0.117377
1.45467	0.117377
1.47219	0.117377
1.48972	0.117377
1.50725	0.117377
1.52477	0.117377
1.5423	0.117377
1.55982	0.117377
1.57735	0.117377
-0.788675	0.169354
-0.771149	0.169354
-0.753623	0.169354
-0.736097	0.169354
-0.718571	0.169354
-0.701045	0.169354
-0.683518	0.169354
-0.665992	0.169354
-0.648466	0.169354
-0.63094	0.169354
-0.613414	0.169354
-0.595888	0.169354
-0.578362	0.169354
-0.560836	0.169354
-0.54331	0.169354
-0.525783	0.169354
-0.508257	0.169354
-0.490731	0.169354
-0.473205	0.169354
-0.455679	0.169354
-0.438153	0.169354
-0.420627	0.169354
-0.403101	0.169354
-0.385575	0.169354
-0.368048	0.169354
-0.350522	0.169354
-0.332996	0.169354
-0.31547	0.169354
-0.297944	0.169354
-0.280418	0.169354
-0.262892	0.169354
-0.245366	0.169354
-0.227839	0.169354
-0.210313	0.169354
-0.192787	0.169354
-0.175261	0.169354
-0.157735	0.169354
-0.140209	0.169354
-0.122683	0.169354
-0.105157	0.169354
-0.0876306	0.169354
-0.0701045	0.169354
-0.0525783	0.169354
-0.0350522	0.169354
-0.0175261	0.169354
0	0.06
0.0144338	0.0835
0.0288675	0.107
0.0433013	0.1305
0.057735	0.154
0.0721688	0.1775
0.0866025	0.201
0.101036	0.2245
0.11547	0.248
0.129904	0.2715
0.144338	0.295
0.158771	0.3185
0.173205	0.342
0.187639	0.3655
0.202073	0.389
0.216506	0.4125
0.23094	0.436
0.245374	0.4595
0.259808	0.483
0.274241	0.5065
0.288675	0.53
0.308675	0.5112
0.328675	0.4924
0.348675	0.4736
0.368675	0.4548
0.388675	0.436
0.408675	0.4172
0.428675	0.3984
0.448675	0.3796
0.468675	0.3608
0.488675	0.342
0.508675	0.3232
0.528675	0.3044
0.548675	0.2856
0.568675	0.2668
0.588675	0.248
0.608675	0.2292
0.628675	0.2104
0.648675	0.1916
0.668675	0.1728
0.688675	0.154
0.708675	0.1352
0.728675	0.1164
0.748675	0.0976
0.768675	0.0788
0.788675	0.169354
0.806201	0.169354
0.823727	0.169354
0.841253	0.169354
0.85878	0.169354
0.876306	0.169354
0.893832	0.169354
0.911358	0.169354
0.928884	0.169354
0.94641	0.169354
0.963936	0.169354
0.981462	0.169354
0.998989	0.169354
1.01651	0.169354
1.03404	0.169354
1.05157	0.169354
1.06909	0.169354
1.08662	0.169354
1.10415	0.169354
1.12167	0.169354
1.1392	0.169354
1.15672	0.169354
1.17425	0.169354
1.19178	0.169354
1.2093	0.169354
1.22683	0.169354
1.24435	0.169354
1.26188	0.169354
1.27941	0.169354
1.29693	0.169354
1.31446	0.169354
1.33198	0.169354
1.34951	0.169354
1.36704	0.169354
1.38456	0.169354
1.40209	0.169354
1.41962	0.169354
1.43714	0.169354
1.45467	0.169354
1.47219	0.169354
1.48972	0.169354
1.50725	0.169354
1.52477	0.169354
1.5423	0.169354
1.55982	0.169354
1.57735	0.169354
-0.788675	0.217098
-0.771149	0.217098
-0.753623	0.217098
-0.736097	0.217098
-0.718571	0.217098
-0.701045	0.217098
-0.683518	0.217098
-0.665992	0.217098
-0.648466	0.217098
-0.63094	0.217098
-0.613414	0.217098
-0.595888	0.217098
-0.578362	0.217098
-0.560836	0.217098
-0.54331	0.217098
-0.525783	0.217098
-0.508257	0.217098
-0.490731	0.217098
-0.473205	0.217098
-0.455679	0.217098
-0.438153	0.217098
-0.420627	0.217098
-0.403101	0.217098
-0.385575	0.217098
-0.368048	0.217098
-0.350522	0.217098
-0.332996	0.217098
-0.31547	0.217098
-0.297944	0.217098
-0.280418	0.217098
-0.262892	0.217098
-0.245366	0.217098
-0.227839	0.217098
-0.210313	0.217098
-0.192787	0.217098
-0.175261	0.217098
-0.157735	0.217098
-0.140209	0.217098
-0.122683	0.217098
-0.105157	0.217098
-0.0876306	0.217098
-0.0701045	0.217098
-0.0525783	0.217098
-0.0350522	0.217098
-0.0175261	0.217098
0	0.08
0.0144338	0.103
0.0288675	0.126
0.0433013	0.149
0.057735	0.172
0.0721688	0.195
0.0866025	0.218
0.101036	0.241
0.11547	0.264
0.129904	0.287
0.144338	0.31
0.158771	0.333
0.173205	0.356
0.187639	0.379
0.202073	0.402
0.216506	0.425
0.23094	0.448
0.245374	0.471
0.259808	0.494
0.274241	0.517
0.288675	0.54
0.308675	0.5216
0.328675	0.5032
0.348675	0.4848
0.368675	0.4664
0.388675	0.448
0.408675	0.4296
0.428675	0.4112
0.448675	0.3928
0.468675	0.3744
0.488675	0.356
0.508675	0.3376
0.528675	0.3192
0.548675	0.3008
0.568675	0.2824
0.588675	0.264
0.608675	0.2456
0.628675	0.2272
0.648675	0.2088
0.668675	0.1904
0.688675	0.172
0.708675	0.1536
0.728675	0.1352
0.748675	0.1168
0.768675	0.0984
0.788675	0.217098
0.806201	0.217098
0.823727	0.217098
0.841253	0.217098
0.85878	0.217098
0.876306	0.217098
0.893832	0.217098
0.911358	0.217098
0.928884	0.217098
0.94641	0.217098
0.963936	0.217098
0.981462	0.217098
0.998989	0.217098
1.01651	0.217098
1.03404	0.217098
1.05157	0.217098
1.06909	0.217098
1.08662	0.217098
1.10415	0.217098
1.12167	0.217098
1.1392	0.217098
1.15672	0.217098
1.17425	0.217098
1.19178	0.217098
1.2093	0.217098
1.22683	0.217098
1.24435	0.217098
1.26188	0.217098
1.27941	0.217098
1.29693	0.217098
1.31446	0.217098
1.33198	0.217098
1.34951	0.217098
1.36704	0.217098
1.38456	0.217098
1.40209	0.217098
1.41962	0.217098
1.43714	0.217098
1.45467	0.217098
1.47219	0.217098
1.48972	0.217098
1.50725	0.217098
1.52477	0.217098
1.5423	0.217098
1.55982	0.217098
1.57735	0.217098
-0.788675	0.260787
-0.771149	0.260787
-0.753623	0.260787
-0.736097	0.260787
-0.718571	0.260787
-0.701045	0.260787
-0.683518	0.260787
-0.665992	0.260787
-0.648466	0.260787
-0.63094	0.260787
-0.613414	0.260787
-0.595888	0.260787
-0.578362	0.260787
-0.560836	0.260787
-0.54331	0.260787
-0.525783	0.260787
-0.508257	0.260787
-0.490731	0.260787
-0.473205	0.260787
-0.455679	0.260787
-0.438153	0.260787
-0.420627	0.260787
-0.403101	0.260787
-0.385575	0.260787
-0.368048	0.260787
-0.350522	0.260787
-0.332996	0.260787
-0.31547	0.260787
-0.297944	0.260787
-0.280418	0.260787
-0.262892	0.260787
-0.245366	0.260787
-0.227839	0.260787
-0.210313	0.260787
-0.192787	0.260787
-0.175261	0.260787
-0.157735	0.260787
-0.140209	0.260787
-0.122683	0.260787
-0.105157	0.260787
-0.0876306	0.260787
-0.0701045	0.260787
-0.0525783	0.260787
-0.0350522	0.260787
-0.0175261	0.260787
0	0.1
0.0144338	0.1225
0.0288675	0.145
0.0433013	0.1675
0.057735	0.19
0.0721688	0.2125
0.0866025	0.235
0.101036	0.2575
0.11547	0.28
0.129904	0.3025
0.144338	0.325
0.158771	0.3475
0.173205	0.37
0.187639	0.3925
0.202073	0.415
0.216506	0.4375
0.23094	0.46
0.245374	0.4825
0.259808	0.505
0.274241	0.5275
0.288675	0.55
0.308675	0.532
0.328675	0.514
0.348675	0.496
0.368675	0.478
0.388675	0.46
0.408675	0.442
0.428675	0.424
0.448675	0.406
0.468675	0.388
0.488675	0.37
0.508675	0.352
0.528675	0.334
0.548675	0.316
0.568675	0.298
0.588675	0.28
0.608675	0.262
0.628675	0.244
0.648675	0.226
0.668675	0.208
0.688675	0.19
0.708675	0.172
0.728675	0.154
0.748675	0.136
0.768675	0.118
0.788675	0.260787
0.806201	0.260787
0.823727	0.260787
0.841253	0.260787
0.85878	0.260787
0.876306	0.260787
0.893832	0.260787
0.911358	0.260787
0.928884	0.260787
0.94641	0.260787
0.963936	0.260787
0.981462	0.260787
0.998989	0.260787
1.01651	0.260787
1.03404	0.260787
1.05157	0.260787
1.06909	0.260787
1.08662	0.260787
1.10415	0.260787
1.12167	0.260787
1.1392	0.260787
1.15672	0.260787
1.17425	0.260787
1.19178	0.260787
1.2093	0.260787
1.22683	0.260787
1.24435	0.260787
1.26188	0.260787
1.27941	0.260787
1.29693	0.260787
1.31446	0.260787
1.33198	0.260787
1.34951	0.260787
1.36704	0.260787
1.38456	0.260787
1.40209	0.260787
1.41962	0.260787
1.43714	0.260787
1.45467	0.260787
1.47219	0.260787
1.48972	0.260787
1.50725	0.260787
1.52477	0.260787
1.5423	0.260787
1.55982	0.260787
1.57735	0.260787
-0.788675	0.300604
-0.771149	0.300604
-0.753623	0.300604
-0.736097	0.300604
-0.718571	0.300604
-0.701045	0.300604
-0.683518	0.300604
-0.665992	0.300604
-0.648466	0.300604
-0.63094	0.300604
-0.613414	0.300604
-0.595888	0.300604
-0.578362	0.300604
-0.560836	0.300604
-0.54331	0.300604
-0.525783	0.300604
-0.508257	0.300604
-0.490731	0.300604
-0.473205	0.300604
-0.455679	0.300604
-0.438153	0.300604
-0.420627	0.300604
-0.403101	0.300604
-0.385575	0.300604
-0.368048	0.300604
-0.350522	0.300604
-0.332996	0.300604
-0.31547	0.300604
-0.297944	0.300604
-0.280418	0.300604
-0.262892	0.300604
-0.245366	0.300604
-0.227839	0.300604
-0.210313	0.300604
-0.192787	0.300604
-0.175261	0.300604
-0.157735	0.300604
-0.140209	0.300604
-0.122683	0.300604
-0.105157	0.300604
-0.0876306	0.300604
-0.0701045	0.300604
-0.0525783	0.300604
-0.0350522	0.300604
-0.0175261	0.300604
0	0.12
0.0144338	0.142
0.0288675	0.164
0.0433013	0.186
0.057735	0.208
0.0721688	0.23
0.0866025	0.252
0.101036	0.274
0.11547	0.296
0.129904	0.318
0.144338	0.34
0.158771	0.362
0.173205	0.384
0.187639	0.406
0.202073	0.428
0.216506	0.45
0.23094	0.472
0.245374	0.494
0.259808	0.516
0.274241	0.538
0.288675	0.56
0.308675	0.5424
0.328675	0.5248
0.348675	0.5072
0.368675	0.4896
0.388675	0.472
0.408675	0.4544
0.428675	0.4368
0.448675	0.4192
0.468675	0.4016
0.488675	0.384
0.508675	0.3664
0.528675	0.3488
0.548675	0.3312
0.568675	0.3136
0.588675	0.296
0.608675	0.2784
0.628675	0.2608
0.648675	0.2432
0.668675	0.2256
0.688675	0.208
0.708675	0.1904
0.728675	0.1728
0.748675	0.1552
0.768675	0.1376
0.788675	0.300604
0.806201	0.300604
0.823727	0.300604
0.841253	0.300604
0.85878	0.300604
0.876306	0.300604
0.893832	0.300604
0.911358	0.300604
0.928884	0.300604
0.94641	0.300604
0.963936	0.300604
0.981462	0.300604
0.998989	0.300604
1.01651	0.300604
1.03404	0.300604
1.05157	0.300604
1.06909	0.300604
1.08662	0.300604
1.10415	0.300604
1.12167	0.300604
1.1392	0.300604
1.15672	0.300604
1.17425	0.300604
1.19178	0.300604
1.2093	0.300604
1.22683	0.300604
1.24435	0.300604
1.26188	0.300604
1.27941	0.300604
1.29693	0.300604
1.31446	0.300604
1.33198	0.300604
1.34951	0.300604
1.36704	0.300604
1.38456	0.300604
1.40209	0.300604
1.41962	0.300604
1.43714	0.300604
1.45467	0.300604
1.47219	0.300604
1.48972	0.300604
1.50725	0.300604
1.52477	0.300604
1.5423	0.300604
1.55982	0.300604
1.57735	0.300604
-0.788675	0.336726
-0.771149	0.336726
-0.753623	0.336726
-0.736097	0.336726
-0.718571	0.336726
-0.701045	0.336726
-0.683518	0.336726
-0.665992	0.336726
-0.648466	0.336726
-0.63094	0.336726
-0.613414	0.336726
-0.595888	0.336726
-0.578362	0.336726
-0.560836	0.336726
-0.54331	0.336726
-0.525783	0.336726
-0.508257	0.336726
-0.490731	0.336726
-0.473205	0.336726
-0.455679	0.336726
-0.438153	0.336726
-0.420627	0.336726
-0.403101	0.336726
-0.385575	0.336726
-0.368048	0.336726
-0.350522	0.336726
-0.332996	0.336726
-0.31547	0.336726
-0.297944	0.336726
-0.280418	0.336726
-0.262892	0.336726
-0.245366	0.336726
-0.227839	0.336726
-0.210313	0.336726
-0.192787	0.336726
-0.175261	0.336726
-0.157735	0.336726
-0.140209	0.336726
-0.122683	0.336726
-0.105157	0.336726
-0.0876306	0.336726
-0.0701045	0.336726
-0.0525783	0.336726
-0.0350522	0.336726
-0.0175261	0.336726
0	0.14
0.0144338	0.1615
0.0288675	0.183
0.0433013	0.2045
0.057735	0.226
0.0721688	0.2475
0.0866025	0.269
0.101036	0.2905
0.11547	0.312
0.129904	0.3335
0.144338	0.355
0.158771	0.3765
0.173205	0.398
0.187639	0.4195
0.202073	0.441
0.216506	0.4625
0.23094	0.484
0.245374	0.5055
0.259808	0.527
0.274241	0.5485
0.288675	0.57
0.308675	0.5528
0.328675	0.5356
0.348675	0.5184
0.368675	0.5012
0.388675	0.484
0.408675	0.4668
0.428675	0.4496
0.448675	0.4324
0.468675	0.4152
0.488675	0.398
0.508675	0.3808
0.528675	0.3636
0.548675	0.3464
0.568675	0.3292
0.588675	0.312
0.608675	0.2948
0.628675	0.2776
0.648675	0.2604
0.668675	0.2432
0.688675	0.226
0.708675	0.2088
0.728675	0.1916
0.748675	0.1744
0.768675	0.1572
0.788675	0.336726
0.806201	0.336726
0.823727	0.336726
0.841253	0.336726
0.85878	0.336726
0.876306	0.336726
0.893832	0.336726
0.911358	0.336726
0.928884	0.336726
0.94641	0.336726
0.963936	0.336726
0.981462	0.336726
0.998989	0.336726
1.01651	0.336726
1.03404	0.336726
1.05157	0.336726
1.06909	0.336726
1.08662	0.336726
1.10415	0.336726
1.12167	0.336726
1.1392	0.336726
1.15672	0.336726
1.17425	0.336726
1.19178	0.336726
1.2093	0.336726
1.22683	0.336726
1.24435	0.336726
1.26188	0.336726
1.27941	0.336726
1.29693	0.336726
1.31446	0.336726
1.33198	0.336726
1.34951	0.336726
1.36704	0.336726
1.38456	0.336726
1.40209	0.336726
1.41962	0.336726
1.43714	0.336726
1.45467	0.336726
1.47219	0.336726
1.48972	0.336726
1.50725	0.336726
1.52477	0.336726
1.5423	0.336726
1.55982	0.336726
1.57735	0.336726
-0.788675	0.369336
-0.771149	0.369336
-0.753623	0.369336
-0.736097	0.369336
-0.718571	0.369336
-0.701045	0.369336
-0.683518	0.369336
-0.665992	0.369336
-0.648466	0.369336
-0.63094	0.369336
-0.613414	0.369336
-0.595888	0.369336
-0.578362	0.369336
-0.560836	0.369336
-0.54331	0.369336
-0.525783	0.369336
-0.508257	0.369336
-0.490731	0.369336
-0.473205	0.369336
-0.455679	0.369336
-0.438153	0.369336
-0.420627	0.369336
-0.403101	0.369336
-0.385575	0.369336
-0.368048	0.369336
-0.350522	0.369336
-0.332996	0.369336
-0.31547	0.369336
-0.297944	0.369336
-0.280418	0.369336
-0.262892	0.369336
-0.245366	0.369336
-0.227839	0.369336
-0.210313	0.369336
-0.192787	0.369336
-0.175261	0.369336
-0.157735	0.369336
-0.140209	0.369336
-0.122683	0.369336
-0.105157	0.369336
-0.0876306	0.369336
-0.0701045	0.369336
-0.0525783	0.369336
-0.0350522	0.369336
-0.0175261	0.369336
0	0.16
0.0144338	0.181
0.0288675	0.202
0.0433013	0.223
0.057735	0.244
0.0721688	0.265
0.0866025	0.286
0.101036	0.307
0.11547	0.328
0.129904	0.349
0.144338	0.37
0.158771	0.391
0.173205	0.412
0.187639	0.433
0.202073	0.454
0.216506	0.475
0.23094	0.496
0.245374	0.517
0.259808	0.538
0.274241	0.559
0.288675	0.58
0.308675	0.5632
0.328675	0.5464
0.348675	0.5296
0.368675	0.5128
0.388675	0.496
0.408675	0.4792
0.428675	0.4624
0.448675	0.4456
0.468675	0.4288
0.488675	0.412
0.508675	0.3952
0.528675	0.3784
0.548675	0.3616
0.568675	0.3448
0.588675	0.328
0.608675	0.3112
0.628675	0.2944
0.648675	0.2776
0.668675	0.2608
0.688675	0.244
0.708675	0.2272
0.728675	0.2104
0.748675	0.1936
0.768675	0.1768
0.788675	0.369336
0.806201	0.369336
0.823727	0.369336
0.841253	0.369336
0.85878	0.369336
0.876306	0.369336
0.893832	0.369336
0.911358	0.369336
0.928884	0.369336
0.94641	0.369336
0.963936	0.369336
0.981462	0.369336
0.998989	0.369336
1.01651	0.369336
1.03404	0.369336
1.05157	0.369336
1.06909	0.369336
1.08662	0.369336
1.10415	0.369336
1.12167	0.369336
1.1392	0.369336
1.15672	0.369336
1.17425	0.369336
1.19178	0.369336
1.2093	0.369336
1.22683	0.369336
1.24435	0.369336
1.26188	0.369336
1.27941	0.369336
1.29693	0.369336
1.31446	0.369336
1.33198	0.369336
1.34951	0.369336
1.36704	0.369336
1.38456	0.369336
1.40209	0.369336
1.41962	0.369336
1.43714	0.369336
1.45467	0.369336
1.47219	0.369336
1.48972	0.369336
1.50725	0.369336
1.52477	0.369336
1.5423	0.369336
1.55982	0.369336
1.57735	0.369336
-0.788675	0.398613
-0.771149	0.398613
-0.753623	0.398613
-0.736097	0.398613
-0.718571	0.398613
-0.701045	0.398613
-0.683518	0.398613
-0.665992	0.398613
-0.648466	0.398613
-0.63094	0.398613
-0.613414	0.398613
-0.595888	0.398613
-0.578362	0.398613
-0.560836	0.398613
-0.54331	0.398613
-0.525783	0.398613
-0.508257	0.398613
-0.490731	0.398613
-0.473205	0.398613
-0.455679	0.398613
-0.438153	0.398613
-0.420627	0.398613
-0.403101	0.398613
-0.385575	0.398613
-0.368048	0.398613
-0.350522	0.398613
-0.332996	0.398613
-0.31547	0.398613
-0.297944	0.398613
-0.280418	0.398613
-0.262892	0.398613
-0.245366	0.398613
-0.227839	0.398613
-0.210313	0.398613
-0.192787	0.398613
-0.175261	0.398613
-0.157735	0.398613
-0.140209	0.398613
-0.122683	0.398613
-0.105157	0.398613
-0.0876306	0.398613
-0.0701045	0.398613
-0.0525783	0.398613
-0.0350522	0.398613
-0.0175261	0.398613
0	0.18
0.0144338	0.2005
0.0288675	0.221
0.0433013	0.2415
0.057735	0.262
0.0721688	0.2825
0.0866025	0.303
0.101036	0.3235
0.11547	0.344
0.129904	0.3645
0.144338	0.385
0.158771	0.4055
0.173205	0.426
0.187639	0.4465
0.202073	0.467
0.216506	0.4875
0.23094	0.508
0.245374	0.5285
0.259808	0.549
0.274241	0.5695
0.288675	0.59
0.308675	0.5736
0.328675	0.5572
0.348675	0.5408
0.368675	0.5244
0.388675	0.508
0.408675	0.4916
0.428675	0.4752
0.448675	0.4588
0.468675	0.4424
0.488675	0.426
0.508675	0.4096
0.528675	0.3932
0.548675	0.3768
0.568675	0.3604
0.588675	0.344
0.608675	0.3276
0.628675	0.3112
0.648675	0.2948
0.668675	0.2784
0.688675	0.262
0.708675	0.2456
0.728675	0.2292
0.748675	0.2128
0.768675	0.1964
0.788675	0.398613
0.806201	0.398613
0.823727	0.398613
0.841253	0.398613
0.85878	0.398613
0.876306	0.398613
0.893832	0.398613
0.911358	0.398613
0.928884	0.398613
0.94641	0.398613
0.963936	0.398613
0.981462	0.398613
0.998989	0.398613
1.01651	0.398613
1.03404	0.398613
1.05157	0.398613
1.06909	0.398613
1.08662	0.398613
1.10415	0.398613
1.12167	0.398613
1.1392	0.398613
1.15672	0.398613
1.17425	0.398613
1.19178	0.398613
1.2093	0.398613
1.22683	0.398613
1.24435	0.398613
1.26188	0.398613
1.27941	0.398613
1.29693	0.398613
1.31446	0.398613
1.33198	0.398613
1.34951	0.398613
1.36704	0.398613
1.38456	0.398613
1.40209	0.398613
1.41962	0.398613
1.43714	0.398613
1.45467	0.398613
1.47219	0.398613
1.48972	0.398613
1.50725	0.398613
1.52477	0.398613
1.5423	0.398613
1.55982	0.398613
1.57735	0.398613
-0.788675	0.424737
-0.771149	0.424737
-0.753623	0.424737
-0.736097	0.424737
-0.718571	0.424737
-0.701045	0.424737
-0.683518	0.424737
-0.665992	0.424737
-0.648466	0.424737
-0.63094	0.424737
-0.613414	0.424737
-0.595888	0.424737
-0.578362	0.424737
-0.560836	0.424737
-0.54331	0.424737
-0.525783	0.424737
-0.508257	0.424737
-0.490731	0.424737
-0.473205	0.424737
-0.455679	0.424737
-0.438153	0.424737
-0.420627	0.424737
-0.403101	0.424737
-0.385575	0.424737
-0.368048	0.424737
-0.350522	0.424737
-0.332996	0.424737
-0.31547	0.424737
-0.297944	0.424737
-0.280418	0.424737
-0.262892	0.424737
-0.245366	0.424737
-0.227839	0.424737
-0.210313	0.424737
-0.192787	0.424737
-0.175261	0.424737
-0.157735	0.424737
-0.140209	0.424737
-0.122683	0.424737
-0.105157	0.424737
-0.0876306	0.424737
-0.0701045	0.424737
-0.0525783	0.424737
-0.0350522	0.424737
-0.0175261	0.424737
0	0.2
0.0144338	0.22
0.0288675	0.24
0.0433013	0.26
0.057735	0.28
0.0721688	0.3
0.0866025	0.32
0.101036	0.34
0.11547	0.36
0.129904	0.38
0.144338	0.4
0.158771	0.42
0.173205	0.44
0.187639	0.46
0.202073	0.48
0.216506	0.5
0.23094	0.52
0.245374	0.54
0.259808	0.56
0.274241	0.58
0.288675	0.6
0.308675	0.584
0.328675	0.568
0.348675	0.552
0.368675	0.536
0.388675	0.52
0.408675	0.504
0.428675	0.488
0.448675	0.472
0.468675	0.456
0.488675	0.44
0.508675	0.424
0.528675	0.408
0.548675	0.392
0.568675	0.376
0.588675	0.36
0.608675	0.344
0.628675	0.328
0.648675	0.312
0.668675	0.296
0.688675	0.28
0.708675	0.264
0.728675	0.248
0.748675	0.232
0.768675	0.216
0.788675	0.424737
0.806201	0.424737
0.823727	0.424737
0.841253	0.424737
0.85878	0.424737
0.876306	0.424737
0.893832	0.424737
0.911358	0.424737
0.928884	0.424737
0.94641	0.424737
0.963936	0.424737
0.981462	0.424737
0.998989	0.424737
1.01651	0.424737
1.03404	0.424737
1.05157	0.424737
1.06909	0.424737
1.08662	0.424737
1.10415	0.424737
1.12167	0.424737
1.1392	0.424737
1.15672	0.424737
1.17425	0.424737
1.19178	0.424737
1.2093	0.424737
1.22683	0.424737
1.24435	0.424737
1.26188	0.424737
1.27941	0.424737
1.29693	0.424737
1.31446	0.424737
1.33198	0.424737
1.34951	0.424737
1.36704	0.424737
1.38456	0.424737
1.40209	0.424737
1.41962	0.424737
1.43714	0.424737
1.45467	0.424737
1.47219	0.424737
1.48972	0.424737
1.50725	0.424737
1.52477	0.424737
1.5423	0.424737
1.55982	0.424737
1.57735	0.424737
-0.788675	0.447888
-0.771149	0.447888
-0.753623	0.447888
-0.736097	0.447888
-0.718571	0.447888
-0.701045	0.447888
-0.683518	0.447888
-0.665992	0.447888
-0.648466	0.447888
-0.63094	0.447888
-0.613414	0.447888
-0.595888	0.447888
-0.578362	0.447888
-0.560836	0.447888
-0.54331	0.447888
-0.525783	0.447888
-0.508257	0.447888
-0.490731	0.447888
-0.473205	0.447888
-0.455679	0.447888
-0.438153	0.447888
-0.420627	0.447888
-0.403101	0.447888
-0.385575	0.447888
-0.368048	0.447888
-0.350522	0.447888
-0.332996	0.447888
-0.31547	0.447888
-0.297944	0.447888
-0.280418	0.447888
-0.262892	0.447888
-0.245366	0.447888
-0.227839	0.447888
-0.210313	0.447888
-0.192787	0.447888
-0.175261	0.447888
-0.157735	0.447888
-0.140209	0.447888
-0.122683	0.447888
-0.105157	0.447888
-0.0876306	0.447888
-0.0701045	0.447888
-0.0525783	0.447888
-0.0350522	0.447888
-0.0175261	0.447888
0	0.22
0.0144338	0.2395
0.0288675	0.259
0.0433013	0.2785
0.057735	0.298
0.0721688	0.3175
0.0866025	0.337
0.101036	0.3565
0.11547	0.376
0.129904	0.3955
0.144338	0.415
0.158771	0.4345
0.173205	0.454
0.187639	0.4735
0.202073	0.493
0.216506	0.5125
0.23094	0.532
0.245374	0.5515
0.259808	0.571
0.274241	0.5905
0.288675	0.61
0.308675	0.5944
0.328675	0.5788
0.348675	0.5632
0.368675	0.5476
0.388675	0.532
0.408675	0.5164
0.428675	0.5008
0.448675	0.4852
0.468675	0.4696
0.488675	0.454
0.508675	0.4384
0.528675	0.4228
0.548675	0.4072
0.568675	0.3916
0.588675	0.376
0.608675	0.3604
0.628675	0.3448
0.648675	0.3292
0.668675	0.3136
0.688675	0.298
0.708675	0.2824
0.728675	0.2668
0.748675	0.2512
0.768675	0.2356
0.788675	0.447888
0.806201	0.447888
0.823727	0.447888
0.841253	0.447888
0.85878	0.447888
0.876306	0.447888
0.893832	0.447888
0.911358	0.447888
0.928884	0.447888
0.94641	0.447888
0.963936	0.447888
0.981462	0.447888
0.998989	0.447888
1.01651	0.447888
1.03404	0.447888
1.05157	0.447888
1.06909	0.447888
1.08662	0.447888
1.10415	0.447888
1.12167	0.447888
1.1392	0.447888
1.15672	0.447888
1.17425	0.447888
1.19178	0.447888
1.2093	0.447888
1.22683	0.447888
1.24435	0.447888
1.26188	0.447888
1.27941	0.447888
1.29693	0.447888
1.31446	0.447888
1.33198	0.447888
1.34951	0.447888
1.36704	0.447888
1.38456	0.447888
1.40209	0.447888
1.41962	0.447888
1.43714	0.447888
1.45467	0.447888
1.47219	0.447888
1.48972	0.447888
1.50725	0.447888
1.52477	0.447888
1.5423	0.447888
1.55982	0.447888
1.57735	0.447888
-0.788675	0.468246
-0.771149	0.468246
-0.753623	0.468246
-0.736097	0.468246
-0.718571	0.468246
-0.701045	0.468246
-0.683518	0.468246
-0.665992	0.468246
-0.648466	0.468246
-0.63094	0.468246
-0.613414	0.468246
-0.595888	0.468246
-0.578362	0.468246
-0.560836	0.468246
-0.54331	0.468246
-0.525783	0.468246
-0.508257	0.468246
-0.490731	0.468246
-0.473205	0.468246
-0.455679	0.468246
-0.438153	0.468246
-0.420627	0.468246
-0.403101	0.468246
-0.385575	0.468246
-0.368048	0.468246
-0.350522	0.468246
-0.332996	0.468246
-0.31547	0.468246
-0.297944	0.468246
-0.280418	0.468246
-0.262892	0.468246
-0.245366	0.468246
-0.227839	0.468246
-0.210313	0.468246
-0.192787	0.468246
-0.175261	0.468246
-0.157735	0.468246
-0.140209	0.468246
-0.122683	0.468246
-0.105157	0.468246
-0.0876306	0.468246
-0.0701045	0.468246
-0.0525783	0.468246
-0.0350522	0.468246
-0.0175261	0.468246
0	0.24
0.0144338	0.259
0.0288675	0.278
0.0433013	0.297
0.057735	0.316
0.0721688	0.335
0.0866025	0.354
0.101036	0.373
0.11547	0.392
0.129904	0.411
0.144338	0.43
0.158771	0.449
0.173205	0.468
0.187639	0.487
0.202073	0.506
0.216506	0.525
0.23094	0.544
0.245374	0.563
0.259808	0.582
0.274241	0.601
0.288675	0.62
0.308675	0.6048
0.328675	0.5896
0.348675	0.5744
0.368675	0.5592
0.388675	0.544
0.408675	0.5288
0.428675	0.5136
0.448675	0.4984
0.468675	0.4832
0.488675	0.468
0.508675	0.4528
0.528675	0.4376
0.548675	0.4224
0.568675	0.4072
0.588675	0.392
0.608675	0.3768
0.628675	0.3616
0.648675	0.3464
0.668675	0.3312
0.688675	0.316
0.708675	0.3008
0.728675	0.2856
0.748675	0.2704
0.768675	0.2552
0.788675	0.468246
0.806201	0.468246
0.823727	0.468246
0.841253	0.468246
0.85878	0.468246
0.876306	0.468246
0.893832	0.468246
0.911358	0.468246
0.928884	0.468246
0.94641	0.468246
0.963936	0.468246
0.981462	0.468246
0.998989	0.468246
1.01651	0.468246
1.03404	0.468246
1.05157	0.468246
1.06909	0.468246
1.08662	0.468246
1.10415	0.468246
1.12167	0.468246
1.1392	0.468246
1.15672	0.468246
1.17425	0.468246
1.19178	0.468246
1.2093	0.468246
1.22683	0.468246
1.24435	0.468246
1.26188	0.468246
1.27941	0.468246
1.29693	0.468246
1.31446	0.468246
1.33198	0.468246
1.34951	0.468246
1.36704	0.468246
1.38456	0.468246
1.40209	0.468246
1.41962	0.468246
1.43714	0.468246
1.45467	0.468246
1.47219	0.468246
1.48972	0.468246
1.50725	0.468246
1.52477	0.468246
1.5423	0.468246
1.55982	0.468246
1.57735	0.468246
-0.788675	0.485992
-0.771149	0.485992
-0.753623	0.485992
-0.736097	0.485992
-0.718571	0.485992
-0.701045	0.485992
-0.683518	0.485992
-0.665992	0.485992
-0.648466	0.485992
-0.63094	0.485992
-0.613414	0.485992