VARIABLES = X Y
ZONE I = 50, J = 30, F = POINT
0 0
0.204082 0
0.408163 0
0.612245 0
0.816327 0
1.02041 0
1.22449 0
1.42857 0
1.63265 0
1.83673 0
2.04082 0
2.2449 0
2.44898 0
2.65306 0
2.85714 0
3.06122 0
3.26531 0
3.46939 0
3.67347 0
3.87755 0
4.08163 0
4.28571 0
4.4898 0
4.69388 0
4.89796 0
5.10204 0
5.30612 0
5.5102 0
5.71429 0
5.91837 0
6.12245 0
6.32653 0
6.53061 0
6.73469 0
6.93878 0
7.14286 0
7.34694 0
7.55102 0
7.7551 0
7.95918 0
8.16327 0
8.36735 0
8.57143 0
8.77551 0
8.97959 0
9.18367 0
9.38776 0
9.59184 0
9.79592 0
10 0
0 0.172414
0.204082 0.172414
0.408163 0.172414
0.612245 0.172414
0.816327 0.172414
1.02041 0.172414
1.22449 0.172414
1.42857 0.172414
1.63265 0.172414
1.83673 0.172414
2.04082 0.172414
2.2449 0.172414
2.44898 0.172414
2.65306 0.172414
2.85714 0.172414
3.06122 0.172414
3.26531 0.172414
3.46939 0.172414
3.67347 0.172414
3.87755 0.172414
4.08163 0.172414
4.28571 0.172414
4.4898 0.172414
4.69388 0.172414
4.89796 0.172414
5.10204 0.172414
5.30612 0.172414
5.5102 0.172414
5.71429 0.172414
5.91837 0.172414
6.12245 0.172414
6.32653 0.172414
6.53061 0.172414
6.73469 0.172414
6.93878 0.172414
7.14286 0.172414
7.34694 0.172414
7.55102 0.172414
7.7551 0.172414
7.95918 0.172414
8.16327 0.172414
8.36735 0.172414
8.57143 0.172414
8.77551 0.172414
8.97959 0.172414
9.18367 0.172414
9.38776 0.172414
9.59184 0.172414
9.79592 0.172414
10 0.172414
0 0.344828
0.204082 0.344828
0.408163 0.344828
0.612245 0.344828
0.816327 0.344828
1.02041 0.344828
1.22449 0.344828
1.42857 0.344828
1.63265 0.344828
1.83673 0.344828
2.04082 0.344828
2.2449 0.344828
2.44898 0.344828
2.65306 0.344828
2.85714 0.344828
3.06122 0.344828
3.26531 0.344828
3.46939 0.344828
3.67347 0.344828
3.87755 0.344828
4.08163 0.344828
4.28571 0.344828
4.4898 0.344828
4.69388 0.344828
4.89796 0.344828
5.10204 0.344828
5.30612 0.344828
5.5102 0.344828
5.71429 0.344828
5.91837 0.344828
6.12245 0.344828
6.32653 0.344828
6.53061 0.344828
6.73469 0.344828
6.93878 0.344828
7.14286 0.344828
7.34694 0.344828
7.55102 0.344828
7.7551 0.344828
7.95918 0.344828
8.16327 0.344828
8.36735 0.344828
8.57143 0.344828
8.77551 0.344828
8.97959 0.344828
9.18367 0.344828
9.38776 0.344828
9.59184 0.344828
9.79592 0.344828
10 0.344828
0 0.517241
0.204082 0.517241
0.408163 0.517241
0.612245 0.517241
0.816327 0.517241
1.02041 0.517241
1.22449 0.517241
1.42857 0.517241
1.63265 0.517241
1.83673 0.517241
2.04082 0.517241
2.2449 0.517241
2.44898 0.517241
2.65306 0.517241
2.85714 0.517241
3.06122 0.517241
3.26531 0.517241
3.46939 0.517241
3.67347 0.517241
3.87755 0.517241
4.08163 0.517241
4.28571 0.517241
4.4898 0.517241
4.69388 0.517241
4.89796 0.517241
5.10204 0.517241
5.30612 0.517241
5.5102 0.517241
5.71429 0.517241
5.91837 0.517241
6.12245 0.517241
6.32653 0.517241
6.53061 0.517241
6.73469 0.517241
6.93878 0.517241
7.14286 0.517241
7.34694 0.517241
7.55102 0.517241
7.7551 0.517241
7.95918 0.517241
8.16327 0.517241
8.36735 0.517241
8.57143 0.517241
8.77551 0.517241
8.97959 0.517241
9.18367 0.517241
9.38776 0.517241
9.59184 0.517241
9.79592 0.517241
10 0.517241
0 0.689655
0.204082 0.689655
0.408163 0.689655
0.612245 0.689655
0.816327 0.689655
1.02041 0.689655
1.22449 0.689655
1.42857 0.689655
1.63265 0.689655
1.83673 0.689655
2.04082 0.689655
2.2449 0.689655
2.44898 0.689655
2.65306 0.689655
2.85714 0.689655
3.06122 0.689655
3.26531 0.689655
3.46939 0.689655
3.67347 0.689655
3.87755 0.689655
4.08163 0.689655
4.28571 0.689655
4.4898 0.689655
4.69388 0.689655
4.89796 0.689655
5.10204 0.689655
5.30612 0.689655
5.5102 0.689655
5.71429 0.689655
5.91837 0.689655
6.12245 0.689655
6.32653 0.689655
6.53061 0.689655
6.73469 0.689655
6.93878 0.689655
7.14286 0.689655
7.34694 0.689655
7.55102 0.689655
7.7551 0.689655
7.95918 0.689655
8.16327 0.689655
8.36735 0.689655
8.57143 0.689655
8.77551 0.689655
8.97959 0.689655
9.18367 0.689655
9.38776 0.689655
9.59184 0.689655
9.79592 0.689655
10 0.689655
0 0.862069
0.204082 0.862069
0.408163 0.862069
0.612245 0.862069
0.816327 0.862069
1.02041 0.862069
1.22449 0.862069
1.42857 0.862069
1.63265 0.862069
1.83673 0.862069
2.04082 0.862069
2.2449 0.862069
2.44898 0.862069
2.65306 0.862069
2.85714 0.862069
3.06122 0.862069
3.26531 0.862069
3.46939 0.862069
3.67347 0.862069
3.87755 0.862069
4.08163 0.862069
4.28571 0.862069
4.4898 0.862069
4.69388 0.862069
4.89796 0.862069
5.10204 0.862069
5.30612 0.862069
5.5102 0.862069
5.71429 0.862069
5.91837 0.862069
6.12245 0.862069
6.32653 0.862069
6.53061 0.862069
6.73469 0.862069
6.93878 0.862069
7.14286 0.862069
7.34694 0.862069
7.55102 0.862069
7.7551 0.862069
7.95918 0.862069
8.16327 0.862069
8.36735 0.862069
8.57143 0.862069
8.77551 0.862069
8.97959 0.862069
9.18367 0.862069
9.38776 0.862069
9.59184 0.862069
9.79592 0.862069
10 0.862069
0 1.03448
0.204082 1.03448
0.408163 1.03448
0.612245 1.03448
0.816327 1.03448
1.02041 1.03448
1.22449 1.03448
1.42857 1.03448
1.63265 1.03448
1.83673 1.03448
2.04082 1.03448
2.2449 1.03448
2.44898 1.03448
2.65306 1.03448
2.85714 1.03448
3.06122 1.03448
3.26531 1.03448
3.46939 1.03448
3.67347 1.03448
3.87755 1.03448
4.08163 1.03448
4.28571 1.03448
4.4898 1.03448
4.69388 1.03448
4.89796 1.03448
5.10204 1.03448
5.30612 1.03448
5.5102 1.03448
5.71429 1.03448
5.91837 1.03448
6.12245 1.03448
6.32653 1.03448
6.53061 1.03448
6.73469 1.03448
6.93878 1.03448
7.14286 1.03448
7.34694 1.03448
7.55102 1.03448
7.7551 1.03448
7.95918 1.03448
8.16327 1.03448
8.36735 1.03448
8.57143 1.03448
8.77551 1.03448
8.97959 1.03448
9.18367 1.03448
9.38776 1.03448
9.59184 1.03448
9.79592 1.03448
10 1.03448
0 1.2069
0.204082 1.2069
0.408163 1.2069
0.612245 1.2069
0.816327 1.2069
1.02041 1.2069
1.22449 1.2069
1.42857 1.2069
1.63265 1.2069
1.83673 1.2069
2.04082 1.2069
2.2449 1.2069
2.44898 1.2069
2.65306 1.2069
2.85714 1.2069
3.06122 1.2069
3.26531 1.2069
3.46939 1.2069
3.67347 1.2069
3.87755 1.2069
4.08163 1.2069
4.28571 1.2069
4.4898 1.2069
4.69388 1.2069
4.89796 1.2069
5.10204 1.2069
5.30612 1.2069
5.5102 1.2069
5.71429 1.2069
5.91837 1.2069
6.12245 1.2069
6.32653 1.2069
6.53061 1.2069
6.73469 1.2069
6.93878 1.2069
7.14286 1.2069
7.34694 1.2069
7.55102 1.2069
7.7551 1.2069
7.95918 1.2069
8.16327 1.2069
8.36735 1.2069
8.57143 1.2069
8.77551 1.2069
8.97959 1.2069
9.18367 1.2069
9.38776 1.2069
9.59184 1.2069
9.79592 1.2069
10 1.2069
0 1.37931
0.204082 1.37931
0.408163 1.37931
0.612245 1.37931
0.816327 1.37931
1.02041 1.37931
1.22449 1.37931
1.42857 1.37931
1.63265 1.37931
1.83673 1.37931
2.04082 1.37931
2.2449 1.37931
2.44898 1.37931
2.65306 1.37931
2.85714 1.37931
3.06122 1.37931
3.26531 1.37931
3.46939 1.37931
3.67347 1.37931
3.87755 1.37931
4.08163 1.37931
4.28571 1.37931
4.4898 1.37931
4.69388 1.37931
4.89796 1.37931
5.10204 1.37931
5.30612 1.37931
5.5102 1.37931
5.71429 1.37931
5.91837 1.37931
6.12245 1.37931
6.32653 1.37931
6.53061 1.37931
6.73469 1.37931
6.93878 1.37931
7.14286 1.37931
7.34694 1.37931
7.55102 1.37931
7.7551 1.37931
7.95918 1.37931
8.16327 1.37931
8.36735 1.37931
8.57143 1.37931
8.77551 1.37931
8.97959 1.37931
9.18367 1.37931
9.38776 1.37931
9.59184 1.37931
9.79592 1.37931
10 1.37931
0 1.55172
0.204082 1.55172
0.408163 1.55172
0.612245 1.55172
0.816327 1.55172
1.02041 1.55172
1.22449 1.55172
1.42857 1.55172
1.63265 1.55172
1.83673 1.55172
2.04082 1.55172
2.2449 1.55172
2.44898 1.55172
2.65306 1.55172
2.85714 1.55172
3.06122 1.55172
3.26531 1.55172
3.46939 1.55172
3.67347 1.55172
3.87755 1.55172
4.08163 1.55172
4.28571 1.55172
4.4898 1.55172
4.69388 1.55172
4.89796 1.55172
5.10204 1.55172
5.30612 1.55172
5.5102 1.55172
5.71429 1.55172
5.91837 1.55172
6.12245 1.55172
6.32653 1.55172
6.53061 1.55172
6.73469 1.55172
6.93878 1.55172
7.14286 1.55172
7.34694 1.55172
7.55102 1.55172
7.7551 1.55172
7.95918 1.55172
8.16327 1.55172
8.36735 1.55172
8.57143 1.55172
8.77551 1.55172
8.97959 1.55172
9.18367 1.55172
9.38776 1.55172
9.59184 1.55172
9.79592 1.55172
10 1.55172
0 1.72414
0.204082 1.72414
0.408163 1.72414
0.612245 1.72414
0.816327 1.72414
1.02041 1.72414
1.22449 1.72414
1.42857 1.72414
1.63265 1.72414
1.83673 1.72414
2.04082 1.72414
2.2449 1.72414
2.44898 1.72414
2.65306 1.72414
2.85714 1.72414
3.06122 1.72414
3.26531 1.72414
3.46939 1.72414
3.67347 1.72414
3.87755 1.72414
4.08163 1.72414
4.28571 1.72414
4.4898 1.72414
4.69388 1.72414
4.89796 1.72414
5.10204 1.72414
5.30612 1.72414
5.5102 1.72414
5.71429 1.72414
5.91837 1.72414
6.12245 1.72414
6.32653 1.72414
6.53061 1.72414
6.73469 1.72414
6.93878 1.72414
7.14286 1.72414
7.34694 1.72414
7.55102 1.72414
7.7551 1.72414
7.95918 1.72414
8.16327 1.72414
8.36735 1.72414
8.57143 1.72414
8.77551 1.72414
8.97959 1.72414
9.18367 1.72414
9.38776 1.72414
9.59184 1.72414
9.79592 1.72414
10 1.72414
0 1.89655
0.204082 1.89655
0.408163 1.89655
0.612245 1.89655
0.816327 1.89655
1.02041 1.89655
1.22449 1.89655
1.42857 1.89655
1.63265 1.89655
1.83673 1.89655
2.04082 1.89655
2.2449 1.89655
2.44898 1.89655
2.65306 1.89655
2.85714 1.89655
3.06122 1.89655
3.26531 1.89655
3.46939 1.89655
3.67347 1.89655
3.87755 1.89655
4.08163 1.89655
4.28571 1.89655
4.4898 1.89655
4.69388 1.89655
4.89796 1.89655
5.10204 1.89655
5.30612 1.89655
5.5102 1.89655
5.71429 1.89655
5.91837 1.89655
6.12245 1.89655
6.32653 1.89655
6.53061 1.89655
6.73469 1.89655
6.93878 1.89655
7.14286 1.89655
7.34694 1.89655
7.55102 1.89655
7.7551 1.89655
7.95918 1.89655
8.16327 1.89655
8.36735 1.89655
8.57143 1.89655
8.77551 1.89655
8.97959 1.89655
9.18367 1.89655
9.38776 1.89655
9.59184 1.89655
9.79592 1.89655
10 1.89655
0 2.06897
0.204082 2.06897
0.408163 2.06897
0.612245 2.06897
0.816327 2.06897
1.02041 2.06897
1.22449 2.06897
1.42857 2.06897
1.63265 2.06897
1.83673 2.06897
2.04082 2.06897
2.2449 2.06897
2.44898 2.06897
2.65306 2.06897
2.85714 2.06897
3.06122 2.06897
3.26531 2.06897
3.46939 2.06897
3.67347 2.06897
3.87755 2.06897
4.08163 2.06897
4.28571 2.06897
4.4898 2.06897
4.69388 2.06897
4.89796 2.06897
5.10204 2.06897
5.30612 2.06897
5.5102 2.06897
5.71429 2.06897
5.91837 2.06897
6.12245 2.06897
6.32653 2.06897
6.53061 2.06897
6.73469 2.06897
6.93878 2.06897
7.14286 2.06897
7.34694 2.06897
7.55102 2.06897
7.7551 2.06897
7.95918 2.06897
8.16327 2.06897
8.36735 2.06897
8.57143 2.06897
8.77551 2.06897
8.97959 2.06897
9.18367 2.06897
9.38776 2.06897
9.59184 2.06897
9.79592 2.06897
10 2.06897
0 2.24138
0.204082 2.24138
0.408163 2.24138
0.612245 2.24138
0.816327 2.24138
1.02041 2.24138
1.22449 2.24138
1.42857 2.24138
1.63265 2.24138
1.83673 2.24138
2.04082 2.24138
2.2449 2.24138
2.44898 2.24138
2.65306 2.24138
2.85714 2.24138
3.06122 2.24138
3.26531 2.24138
3.46939 2.24138
3.67347 2.24138
3.87755 2.24138
4.08163 2.24138
4.28571 2.24138
4.4898 2.24138
4.69388 2.24138
4.89796 2.24138
5.10204 2.24138
5.30612 2.24138
5.5102 2.24138
5.71429 2.24138
5.91837 2.24138
6.12245 2.24138
6.32653 2.24138
6.53061 2.24138
6.73469 2.24138
6.93878 2.24138
7.14286 2.24138
7.34694 2.24138
7.55102 2.24138
7.7551 2.24138
7.95918 2.24138
8.16327 2.24138
8.36735 2.24138
8.57143 2.24138
8.77551 2.24138
8.97959 2.24138
9.18367 2.24138
9.38776 2.24138
9.59184 2.24138
9.79592 2.24138
10 2.24138
0 2.41379
0.204082 2.41379
0.408163 2.41379
0.612245 2.41379
0.816327 2.41379
1.02041 2.41379
1.22449 2.41379
1.42857 2.41379
1.63265 2.41379
1.83673 2.41379
2.04082 2.41379
2.2449 2.41379
2.44898 2.41379
2.65306 2.41379
2.85714 2.41379
3.06122 2.41379
3.26531 2.41379
3.46939 2.41379
3.67347 2.41379
3.87755 2.41379
4.08163 2.41379
4.28571 2.41379
4.4898 2.41379
4.69388 2.41379
4.89796 2.41379
5.10204 2.41379
5.30612 2.41379
5.5102 2.41379
5.71429 2.41379
5.91837 2.41379
6.12245 2.41379
6.32653 2.41379
6.53061 2.41379
6.73469 2.41379
6.93878 2.41379
7.14286 2.41379
7.34694 2.41379
7.55102 2.41379
7.7551 2.41379
7.95918 2.41379
8.16327 2.41379
8.36735 2.41379
8.57143 2.41379
8.77551 2.41379
8.97959 2.41379
9.18367 2.41379
9.38776 2.41379
9.59184 2.41379
9.79592 2.41379
10 2.41379
0 2.58621
0.204082 2.58621
0.408163 2.58621
0.612245 2.58621
0.816327 2.58621
1.02041 2.58621
1.22449 2.58621
1.42857 2.58621
1.63265 2.58621
1.83673 2.58621
2.04082 2.58621
2.2449 2.58621
2.44898 2.58621
2.65306 2.58621
2.85714 2.58621
3.06122 2.58621
3.26531 2.58621
3.46939 2.58621
3.67347 2.58621
3.87755 2.58621
4.08163 2.58621
4.28571 2.58621
4.4898 2.58621
4.69388 2.58621
4.89796 2.58621
5.10204 2.58621
5.30612 2.58621
5.5102 2.58621
5.71429 2.58621
5.91837 2.58621
6.12245 2.58621
6.32653 2.58621
6.53061 2.58621
6.73469 2.58621
6.93878 2.58621
7.14286 2.58621
7.34694 2.58621
7.55102 2.58621
7.7551 2.58621
7.95918 2.58621
8.16327 2.58621
8.36735 2.58621
8.57143 2.58621
8.77551 2.58621
8.97959 2.58621
9.18367 2.58621
9.38776 2.58621
9.59184 2.58621
9.79592 2.58621
10 2.58621
0 2.75862
0.204082 2.75862
0.408163 2.75862
0.612245 2.75862
0.816327 2.75862
1.02041 2.75862
1.22449 2.75862
1.42857 2.75862
1.63265 2.75862
1.83673 2.75862
2.04082 2.75862
2.2449 2.75862
2.44898 2.75862
2.65306 2.75862
2.85714 2.75862
3.06122 2.75862
3.26531 2.75862
3.46939 2.75862
3.67347 2.75862
3.87755 2.75862
4.08163 2.75862
4.28571 2.75862
4.4898 2.75862
4.69388 2.75862
4.89796 2.75862
5.10204 2.75862
5.30612 2.75862
5.5102 2.75862
5.71429 2.75862
5.91837 2.75862
6.12245 2.75862
6.32653 2.75862
6.53061 2.75862
6.73469 2.75862
6.93878 2.75862
7.14286 2.75862
7.34694 2.75862
7.55102 2.75862
7.7551 2.75862
7.95918 2.75862
8.16327 2.75862
8.36735 2.75862
8.57143 2.75862
8.77551 2.75862
8.97959 2.75862
9.18367 2.75862
9.38776 2.75862
9.59184 2.75862
9.79592 2.75862
10 2.75862
0 2.93103
0.204082 2.93103
0.408163 2.93103
0.612245 2.93103
0.816327 2.93103
1.02041 2.93103
1.22449 2.93103
1.42857 2.93103
1.63265 2.93103
1.83673 2.93103
2.04082 2.93103
2.2449 2.93103
2.44898 2.93103
2.65306 2.93103
2.85714 2.93103
3.06122 2.93103
3.26531 2.93103
3.46939 2.93103
3.67347 2.93103
3.87755 2.93103
4.08163 2.93103
4.28571 2.93103
4.4898 2.93103
4.69388 2.93103
4.89796 2.93103
5.10204 2.93103
5.30612 2.93103
5.5102 2.93103
5.71429 2.93103
5.91837 2.93103
6.12245 2.93103
6.32653 2.93103
6.53061 2.93103
6.73469 2.93103
6.93878 2.93103
7.14286 2.93103
7.34694 2.93103
7.55102 2.93103
7.7551 2.93103
7.95918 2.93103
8.16327 2.93103
8.36735 2.93103
8.57143 2.93103
8.77551 2.93103
8.97959 2.93103
9.18367 2.93103
9.38776 2.93103
9.59184 2.93103
9.79592 2.93103
10 2.93103
0 3.10345
0.204082 3.10345
0.408163 3.10345
0.612245 3.10345
0.816327 3.10345
1.02041 3.10345
1.22449 3.10345
1.42857 3.10345
1.63265 3.10345
1.83673 3.10345
2.04082 3.10345
2.2449 3.10345
2.44898 3.10345
2.65306 3.10345
2.85714 3.10345
3.06122 3.10345
3.26531 3.10345
3.46939 3.10345
3.67347 3.10345
3.87755 3.10345
4.08163 3.10345
4.28571 3.10345
4.4898 3.10345
4.69388 3.10345
4.89796 3.10345
5.10204 3.10345
5.30612 3.10345
5.5102 3.10345
5.71429 3.10345
5.91837 3.10345
6.12245 3.10345
6.32653 3.10345
6.53061 3.10345
6.73469 3.10345
6.93878 3.10345
7.14286 3.10345
7.34694 3.10345
7.55102 3.10345
7.7551 3.10345
7.95918 3.10345
8.16327 3.10345
8.36735 3.10345
8.57143 3.10345
8.77551 3.10345
8.97959 3.10345
9.18367 3.10345
9.38776 3.10345
9.59184 3.10345
9.79592 3.10345
10 3.10345
0 3.27586
0.204082 3.27586
0.408163 3.27586
0.612245 3.27586
0.816327 3.27586
1.02041 3.27586
1.22449 3.27586
1.42857 3.27586
1.63265 3.27586
1.83673 3.27586
2.04082 3.27586
2.2449 3.27586
2.44898 3.27586
2.65306 3.27586
2.85714 3.27586
3.06122 3.27586
3.26531 3.27586
3.46939 3.27586
3.67347 3.27586
3.87755 3.27586
4.08163 3.27586
4.28571 3.27586
4.4898 3.27586
4.69388 3.27586
4.89796 3.27586
5.10204 3.27586
5.30612 3.27586
5.5102 3.27586
5.71429 3.27586
5.91837 3.27586
6.12245 3.27586
6.32653 3.27586
6.53061 3.27586
6.73469 3.27586
6.93878 3.27586
7.14286 3.27586
7.34694 3.27586
7.55102 3.27586
7.7551 3.27586
7.95918 3.27586
8.16327 3.27586
8.36735 3.27586
8.57143 3.27586
8.77551 3.27586
8.97959 3.27586
9.18367 3.27586
9.38776 3.27586
9.59184 3.27586
9.79592 3.27586
10 3.27586
0 3.44828
0.204082 3.44828
0.408163 3.44828
0.612245 3.44828
0.816327 3.44828
1.02041 3.44828
1.22449 3.44828
1.42857 3.44828
1.63265 3.44828
1.83673 3.44828
2.04082 3.44828
2.2449 3.44828
2.44898 3.44828
2.65306 3.44828
2.85714 3.44828
3.06122 3.44828
3.26531 3.44828
3.46939 3.44828
3.67347 3.44828
3.87755 3.44828
4.08163 3.44828
4.28571 3.44828
4.4898 3.44828
4.69388 3.44828
4.89796 3.44828
5.10204 3.44828
5.30612 3.44828
5.5102 3.44828
5.71429 3.44828
5.91837 3.44828
6.12245 3.44828
6.32653 3.44828
6.53061 3.44828
6.73469 3.44828
6.93878 3.44828
7.14286 3.44828
7.34694 3.44828
7.55102 3.44828
7.7551 3.44828
7.95918 3.44828
8.16327 3.44828
8.36735 3.44828
8.57143 3.44828
8.77551 3.44828
8.97959 3.44828
9.18367 3.44828
9.38776 3.44828
9.59184 3.44828
9.79592 3.44828
10 3.44828
0 3.62069
0.204082 3.62069
0.408163 3.62069
0.612245 3.62069
0.816327 3.62069
1.02041 3.62069
1.22449 3.62069
1.42857 3.62069
1.63265 3.62069
1.83673 3.62069
2.04082 3.62069
2.2449 3.62069
2.44898 3.62069
2.65306 3.62069
2.85714 3.62069
3.06122 3.62069
3.26531 3.62069
3.46939 3.62069
3.67347 3.62069
3.87755 3.62069
4.08163 3.62069
4.28571 3.62069
4.4898 3.62069
4.69388 3.62069
4.89796 3.62069
5.10204 3.62069
5.30612 3.62069
5.5102 3.62069
5.71429 3.62069
5.91837 3.62069
6.12245 3.62069
6.32653 3.62069
6.53061 3.62069
6.73469 3.62069
6.93878 3.62069
7.14286 3.62069
7.34694 3.62069
7.55102 3.62069
7.7551 3.62069
7.95918 3.62069
8.16327 3.62069
8.36735 3.62069
8.57143 3.62069
8.77551 3.62069
8.97959 3.62069
9.18367 3.62069
9.38776 3.62069
9.59184 3.62069
9.79592 3.62069
10 3.62069
0 3.7931
0.204082 3.7931
0.408163 3.7931
0.612245 3.7931
0.816327 3.7931
1.02041 3.7931
1.22449 3.7931
1.42857 3.7931
1.63265 3.7931
1.83673 3.7931
2.04082 3.7931
2.2449 3.7931
2.44898 3.7931
2.65306 3.7931
2.85714 3.7931
3.06122 3.7931
3.26531 3.7931
3.46939 3.7931
3.67347 3.7931
3.87755 3.7931
4.08163 3.7931
4.28571 3.7931
4.4898 3.7931
4.69388 3.7931
4.89796 3.7931
5.10204 3.7931
5.30612 3.7931
5.5102 3.7931
5.71429 3.7931
5.91837 3.7931
6.12245 3.7931
6.32653 3.7931
6.53061 3.7931
6.73469 3.7931
6.93878 3.7931
7.14286 3.7931
7.34694 3.7931
7.55102 3.7931
7.7551 3.7931
7.95918 3.7931
8.16327 3.7931
8.36735 3.7931
8.57143 3.7931
8.77551 3.7931
8.97959 3.7931
9.18367 3.7931
9.38776 3.7931
9.59184 3.7931
9.79592 3.7931
10 3.7931
0 3.96552
0.204082 3.96552
0.408163 3.96552
0.612245 3.96552
0.816327 3.96552
1.02041 3.96552
1.22449 3.96552
1.42857 3.96552
1.63265 3.96552
1.83673 3.96552
2.04082 3.96552
2.2449 3.96552
2.44898 3.96552
2.65306 3.96552
2.85714 3.96552
3.06122 3.96552
3.26531 3.96552
3.46939 3.96552
3.67347 3.96552
3.87755 3.96552
4.08163 3.96552
4.28571 3.96552
4.4898 3.96552
4.69388 3.96552
4.89796 3.96552
5.10204 3.96552
5.30612 3.96552
5.5102 3.96552
5.71429 3.96552
5.91837 3.96552
6.12245 3.96552
6.32653 3.96552
6.53061 3.96552
6.73469 3.96552
6.93878 3.96552
7.14286 3.96552
7.34694 3.96552
7.55102 3.96552
7.7551 3.96552
7.95918 3.96552
8.16327 3.96552
8.36735 3.96552
8.57143 3.96552
8.77551 3.96552
8.97959 3.96552
9.18367 3.96552
9.38776 3.96552
9.59184 3.96552
9.79592 3.96552
10 3.96552
0 4.13793
0.204082 4.13793
0.408163 4.13793
0.612245 4.13793
0.816327 4.13793
1.02041 4.13793
1.22449 4.13793
1.42857 4.13793
1.63265 4.13793
1.83673 4.13793
2.04082 4.13793
2.2449 4.13793
2.44898 4.13793
2.65306 4.13793
2.85714 4.13793
3.06122 4.13793
3.26531 4.13793
3.46939 4.13793
3.67347 4.13793
3.87755 4.13793
4.08163 4.13793
4.28571 4.13793
4.4898 4.13793
4.69388 4.13793
4.89796 4.13793
5.10204 4.13793
5.30612 4.13793
5.5102 4.13793
5.71429 4.13793
5.91837 4.13793
6.12245 4.13793
6.32653 4.13793
6.53061 4.13793
6.73469 4.13793
6.93878 4.13793
7.14286 4.13793
7.34694 4.13793
7.55102 4.13793
7.7551 4.13793
7.95918 4.13793
8.16327 4.13793
8.36735 4.13793
8.57143 4.13793
8.77551 4.13793
8.97959 4.13793
9.18367 4.13793
9.38776 4.13793
9.59184 4.13793
9.79592 4.13793
10 4.13793
0 4.31034
0.204082 4.31034
0.408163 4.31034
0.612245 4.31034
0.816327 4.31034
1.02041 4.31034
1.22449 4.31034
1.42857 4.31034
1.63265 4.31034
1.83673 4.31034
2.04082 4.31034
2.2449 4.31034
2.44898 4.31034
2.65306 4.31034
2.85714 4.31034
3.06122 4.31034
3.26531 4.31034
3.46939 4.31034
3.67347 4.31034
3.87755 4.31034
4.08163 4.31034
4.28571 4.31034
4.4898 4.31034
4.69388 4.31034
4.89796 4.31034
5.10204 4.31034
5.30612 4.31034
5.5102 4.31034
5.71429 4.31034
5.91837 4.31034
6.12245 4.31034
6.32653 4.31034
6.53061 4.31034
6.73469 4.31034
6.93878 4.31034
7.14286 4.31034
7.34694 4.31034
7.55102 4.31034
7.7551 4.31034
7.95918 4.31034
8.16327 4.31034
8.36735 4.31034
8.57143 4.31034
8.77551 4.31034
8.97959 4.31034
9.18367 4.31034
9.38776 4.31034
9.59184 4.31034
9.79592 4.31034
10 4.31034
0 4.48276
0.204082 4.48276
0.408163 4.48276
0.612245 4.48276
0.816327 4.48276
1.02041 4.48276
1.22449 4.48276
1.42857 4.48276
1.63265 4.48276
1.83673 4.48276
2.04082 4.48276
2.2449 4.48276
2.44898 4.48276
2.65306 4.48276
2.85714 4.48276
3.06122 4.48276
3.26531 4.48276
3.46939 4.48276
3.67347 4.48276
3.87755 4.48276
4.08163 4.48276
4.28571 4.48276
4.4898 4.48276
4.69388 4.48276
4.89796 4.48276
5.10204 4.48276
5.30612 4.48276
5.5102 4.48276
5.71429 4.48276
5.91837 4.48276
6.12245 4.48276
6.32653 4.48276
6.53061 4.48276
6.73469 4.48276
6.93878 4.48276
7.14286 4.48276
7.34694 4.48276
7.55102 4.48276
7.7551 4.48276
7.95918 4.48276
8.16327 4.48276
8.36735 4.48276
8.57143 4.48276
8.77551 4.48276
8.97959 4.48276
9.18367 4.48276
9.38776 4.48276
9.59184 4.48276
9.79592 4.48276
10 4.48276
0 4.65517
0.204082 4.65517
0.408163 4.65517
0.612245 4.65517
0.816327 4.65517
1.02041 4.65517
1.22449 4.65517
1.42857 4.65517
1.63265 4.65517
1.83673 4.65517
2.04082 4.65517
2.2449 4.65517
2.44898 4.65517
2.65306 4.65517
2.85714 4.65517
3.06122 4.65517
3.26531 4.65517
3.46939 4.65517
3.67347 4.65517
3.87755 4.65517
4.08163 4.65517
4.28571 4.65517
4.4898 4.65517
4.69388 4.65517
4.89796 4.65517
5.10204 4.65517
5.30612 4.65517
5.5102 4.65517
5.71429 4.65517
5.91837 4.65517
6.12245 4.65517
6.32653 4.65517
6.53061 4.65517
6.73469 4.65517
6.93878 4.65517
7.14286 4.65517
7.34694 4.65517
7.55102 4.65517
7.7551 4.65517
7.95918 4.65517
8.16327 4.65517
8.36735 4.65517
8.57143 4.65517
8.77551 4.65517
8.97959 4.65517
9.18367 4.65517
9.38776 4.65517
9.59184 4.65517
9.79592 4.65517
10 4.65517
0 4.82759
0.204082 4.82759
0.408163 4.82759
0.612245 4.82759
0.816327 4.82759
1.02041 4.82759
1.22449 4.82759
1.42857 4.82759
1.63265 4.82759
1.83673 4.82759
2.04082 4.82759
2.2449 4.82759
2.44898 4.82759
2.65306 4.82759
2.85714 4.82759
3.06122 4.82759
3.26531 4.82759
3.46939 4.82759
3.67347 4.82759
3.87755 4.82759
4.08163 4.82759
4.28571 4.82759
4.4898 4.82759
4.69388 4.82759
4.89796 4.82759
5.10204 4.82759
5.30612 4.82759
5.5102 4.82759
5.71429 4.82759
5.91837 4.82759
6.12245 4.82759
6.32653 4.82759
6.53061 4.82759
6.73469 4.82759
6.93878 4.82759
7.14286 4.82759
7.34694 4.82759
7.55102 4.82759
7.7551 4.82759
7.95918 4.82759
8.16327 4.82759
8.36735 4.82759
8.57143 4.82759
8.77551 4.82759
8.97959 4.82759
9.18367 4.82759
9.38776 4.82759
9.59184 4.82759
9.79592 4.82759
10 4.82759
0 5
0.204082 5
0.408163 5
0.612245 5
0.816327 5
1.02041 5
1.22449 5
1.42857 5
1.63265 5
1.83673 5
2.04082 5
2.2449 5
2.44898 5
2.65306 5
2.85714 5
3.06122 5
3.26531 5
3.46939 5
3.67347 5
3.87755 5
4.08163 5
4.28571 5
4.4898 5
4.69388 5
4.89796 5
5.10204 5
5.30612 5
5.5102 5
5.71429 5
5.91837 5
6.12245 5
6.32653 5
6.53061 5
6.73469 5
6.93878 5
7.14286 5
7.34694 5
7.55102 5
7.7551 5
7.95918 5
8.16327 5
8.36735 5
8.57143 5
8.77551 5
8.97959 5
9.18367 5
9.38776 5
9.59184 5
9.79592 5
10 5
