VARIABLES = X Y
ZONE I = 31, J = 51, F = POINT
0	0
0.090004	0
0.168459	0
0.236161	0
0.293907	0
0.342493	0
0.382716	0
0.415372	0
0.441258	0
0.461171	0
0.475906	0
0.48626	0
0.493031	0
0.497013	0
0.499004	0
0.499801	0
0.500199	0
0.500996	0
0.502987	0
0.506969	0
0.51374	0
0.524094	0
0.538829	0
0.558742	0
0.584628	0
0.617284	0
0.657507	0
0.706093	0
0.763839	0
0.831541	0
0.909996	0
0	0.04
0.090004	0.04
0.168459	0.04
0.236161	0.04
0.293907	0.04
0.342493	0.04
0.382716	0.04
0.415372	0.04
0.441258	0.04
0.461171	0.04
0.475906	0.04
0.48626	0.04
0.493031	0.04
0.497013	0.04
0.499004	0.04
0.499801	0.04
0.500199	0.04
0.500996	0.04
0.502987	0.04
0.506969	0.04
0.51374	0.04
0.524094	0.04
0.538829	0.04
0.558742	0.04
0.584628	0.04
0.617284	0.04
0.657507	0.04
0.706093	0.04
0.763839	0.04
0.831541	0.04
0.909996	0.04
0	0.08
0.090004	0.08
0.168459	0.08
0.236161	0.08
0.293907	0.08
0.342493	0.08
0.382716	0.08
0.415372	0.08
0.441258	0.08
0.461171	0.08
0.475906	0.08
0.48626	0.08
0.493031	0.08
0.497013	0.08
0.499004	0.08
0.499801	0.08
0.500199	0.08
0.500996	0.08
0.502987	0.08
0.506969	0.08
0.51374	0.08
0.524094	0.08
0.538829	0.08
0.558742	0.08
0.584628	0.08
0.617284	0.08
0.657507	0.08
0.706093	0.08
0.763839	0.08
0.831541	0.08
0.909996	0.08
0	0.12
0.090004	0.12
0.168459	0.12
0.236161	0.12
0.293907	0.12
0.342493	0.12
0.382716	0.12
0.415372	0.12
0.441258	0.12
0.461171	0.12
0.475906	0.12
0.48626	0.12
0.493031	0.12
0.497013	0.12
0.499004	0.12
0.499801	0.12
0.500199	0.12
0.500996	0.12
0.502987	0.12
0.506969	0.12
0.51374	0.12
0.524094	0.12
0.538829	0.12
0.558742	0.12
0.584628	0.12
0.617284	0.12
0.657507	0.12
0.706093	0.12
0.763839	0.12
0.831541	0.12
0.909996	0.12
0	0.16
0.090004	0.16
0.168459	0.16
0.236161	0.16
0.293907	0.16
0.342493	0.16
0.382716	0.16
0.415372	0.16
0.441258	0.16
0.461171	0.16
0.475906	0.16
0.48626	0.16
0.493031	0.16
0.497013	0.16
0.499004	0.16
0.499801	0.16
0.500199	0.16
0.500996	0.16
0.502987	0.16
0.506969	0.16
0.51374	0.16
0.524094	0.16
0.538829	0.16
0.558742	0.16
0.584628	0.16
0.617284	0.16
0.657507	0.16
0.706093	0.16
0.763839	0.16
0.831541	0.16
0.909996	0.16
0	0.2
0.090004	0.2
0.168459	0.2
0.236161	0.2
0.293907	0.2
0.342493	0.2
0.382716	0.2
0.415372	0.2
0.441258	0.2
0.461171	0.2
0.475906	0.2
0.48626	0.2
0.493031	0.2
0.497013	0.2
0.499004	0.2
0.499801	0.2
0.500199	0.2
0.500996	0.2
0.502987	0.2
0.506969	0.2
0.51374	0.2
0.524094	0.2
0.538829	0.2
0.558742	0.2
0.584628	0.2
0.617284	0.2
0.657507	0.2
0.706093	0.2
0.763839	0.2
0.831541	0.2
0.909996	0.2
0	0.24
0.090004	0.24
0.168459	0.24
0.236161	0.24
0.293907	0.24
0.342493	0.24
0.382716	0.24
0.415372	0.24
0.441258	0.24
0.461171	0.24
0.475906	0.24
0.48626	0.24
0.493031	0.24
0.497013	0.24
0.499004	0.24
0.499801	0.24
0.500199	0.24
0.500996	0.24
0.502987	0.24
0.506969	0.24
0.51374	0.24
0.524094	0.24
0.538829	0.24
0.558742	0.24
0.584628	0.24
0.617284	0.24
0.657507	0.24
0.706093	0.24
0.763839	0.24
0.831541	0.24
0.909996	0.24
0	0.28
0.090004	0.28
0.168459	0.28
0.236161	0.28
0.293907	0.28
0.342493	0.28
0.382716	0.28
0.415372	0.28
0.441258	0.28
0.461171	0.28
0.475906	0.28
0.48626	0.28
0.493031	0.28
0.497013	0.28
0.499004	0.28
0.499801	0.28
0.500199	0.28
0.500996	0.28
0.502987	0.28
0.506969	0.28
0.51374	0.28
0.524094	0.28
0.538829	0.28
0.558742	0.28
0.584628	0.28
0.617284	0.28
0.657507	0.28
0.706093	0.28
0.763839	0.28
0.831541	0.28
0.909996	0.28
0	0.32
0.090004	0.32
0.168459	0.32
0.236161	0.32
0.293907	0.32
0.342493	0.32
0.382716	0.32
0.415372	0.32
0.441258	0.32
0.461171	0.32
0.475906	0.32
0.48626	0.32
0.493031	0.32
0.497013	0.32
0.499004	0.32
0.499801	0.32
0.500199	0.32
0.500996	0.32
0.502987	0.32
0.506969	0.32
0.51374	0.32
0.524094	0.32
0.538829	0.32
0.558742	0.32
0.584628	0.32
0.617284	0.32
0.657507	0.32
0.706093	0.32
0.763839	0.32
0.831541	0.32
0.909996	0.32
0	0.36
0.090004	0.36
0.168459	0.36
0.236161	0.36
0.293907	0.36
0.342493	0.36
0.382716	0.36
0.415372	0.36
0.441258	0.36
0.461171	0.36
0.475906	0.36
0.48626	0.36
0.493031	0.36
0.497013	0.36
0.499004	0.36
0.499801	0.36
0.500199	0.36
0.500996	0.36
0.502987	0.36
0.506969	0.36
0.51374	0.36
0.524094	0.36
0.538829	0.36
0.558742	0.36
0.584628	0.36
0.617284	0.36
0.657507	0.36
0.706093	0.36
0.763839	0.36
0.831541	0.36
0.909996	0.36
0	0.4
0.090004	0.4
0.168459	0.4
0.236161	0.4
0.293907	0.4
0.342493	0.4
0.382716	0.4
0.415372	0.4
0.441258	0.4
0.461171	0.4
0.475906	0.4
0.48626	0.4
0.493031	0.4
0.497013	0.4
0.499004	0.4
0.499801	0.4
0.500199	0.4
0.500996	0.4
0.502987	0.4
0.506969	0.4
0.51374	0.4
0.524094	0.4
0.538829	0.4
0.558742	0.4
0.584628	0.4
0.617284	0.4
0.657507	0.4
0.706093	0.4
0.763839	0.4
0.831541	0.4
0.909996	0.4
0	0.44
0.090004	0.44
0.168459	0.44
0.236161	0.44
0.293907	0.44
0.342493	0.44
0.382716	0.44
0.415372	0.44
0.441258	0.44
0.461171	0.44
0.475906	0.44
0.48626	0.44
0.493031	0.44
0.497013	0.44
0.499004	0.44
0.499801	0.44
0.500199	0.44
0.500996	0.44
0.502987	0.44
0.506969	0.44
0.51374	0.44
0.524094	0.44
0.538829	0.44
0.558742	0.44
0.584628	0.44
0.617284	0.44
0.657507	0.44
0.706093	0.44
0.763839	0.44
0.831541	0.44
0.909996	0.44
0	0.48
0.090004	0.48
0.168459	0.48
0.236161	0.48
0.293907	0.48
0.342493	0.48
0.382716	0.48
0.415372	0.48
0.441258	0.48
0.461171	0.48
0.475906	0.48
0.48626	0.48
0.493031	0.48
0.497013	0.48
0.499004	0.48
0.499801	0.48
0.500199	0.48
0.500996	0.48
0.502987	0.48
0.506969	0.48
0.51374	0.48
0.524094	0.48
0.538829	0.48
0.558742	0.48
0.584628	0.48
0.617284	0.48
0.657507	0.48
0.706093	0.48
0.763839	0.48
0.831541	0.48
0.909996	0.48
0	0.52
0.090004	0.52
0.168459	0.52
0.236161	0.52
0.293907	0.52
0.342493	0.52
0.382716	0.52
0.415372	0.52
0.441258	0.52
0.461171	0.52
0.475906	0.52
0.48626	0.52
0.493031	0.52
0.497013	0.52
0.499004	0.52
0.499801	0.52
0.500199	0.52
0.500996	0.52
0.502987	0.52
0.506969	0.52
0.51374	0.52
0.524094	0.52
0.538829	0.52
0.558742	0.52
0.584628	0.52
0.617284	0.52
0.657507	0.52
0.706093	0.52
0.763839	0.52
0.831541	0.52
0.909996	0.52
0	0.56
0.090004	0.56
0.168459	0.56
0.236161	0.56
0.293907	0.56
0.342493	0.56
0.382716	0.56
0.415372	0.56
0.441258	0.56
0.461171	0.56
0.475906	0.56
0.48626	0.56
0.493031	0.56
0.497013	0.56
0.499004	0.56
0.499801	0.56
0.500199	0.56
0.500996	0.56
0.502987	0.56
0.506969	0.56
0.51374	0.56
0.524094	0.56
0.538829	0.56
0.558742	0.56
0.584628	0.56
0.617284	0.56
0.657507	0.56
0.706093	0.56
0.763839	0.56
0.831541	0.56
0.909996	0.56
0	0.6
0.090004	0.6
0.168459	0.6
0.236161	0.6
0.293907	0.6
0.342493	0.6
0.382716	0.6
0.415372	0.6
0.441258	0.6
0.461171	0.6
0.475906	0.6
0.48626	0.6
0.493031	0.6
0.497013	0.6
0.499004	0.6
0.499801	0.6
0.500199	0.6
0.500996	0.6
0.502987	0.6
0.506969	0.6
0.51374	0.6
0.524094	0.6
0.538829	0.6
0.558742	0.6
0.584628	0.6
0.617284	0.6
0.657507	0.6
0.706093	0.6
0.763839	0.6
0.831541	0.6
0.909996	0.6
0	0.64
0.090004	0.64
0.168459	0.64
0.236161	0.64
0.293907	0.64
0.342493	0.64
0.382716	0.64
0.415372	0.64
0.441258	0.64
0.461171	0.64
0.475906	0.64
0.48626	0.64
0.493031	0.64
0.497013	0.64
0.499004	0.64
0.499801	0.64
0.500199	0.64
0.500996	0.64
0.502987	0.64
0.506969	0.64
0.51374	0.64
0.524094	0.64
0.538829	0.64
0.558742	0.64
0.584628	0.64
0.617284	0.64
0.657507	0.64
0.706093	0.64
0.763839	0.64
0.831541	0.64
0.909996	0.64
0	0.68
0.090004	0.68
0.168459	0.68
0.236161	0.68
0.293907	0.68
0.342493	0.68
0.382716	0.68
0.415372	0.68
0.441258	0.68
0.461171	0.68
0.475906	0.68
0.48626	0.68
0.493031	0.68
0.497013	0.68
0.499004	0.68
0.499801	0.68
0.500199	0.68
0.500996	0.68
0.502987	0.68
0.506969	0.68
0.51374	0.68
0.524094	0.68
0.538829	0.68
0.558742	0.68
0.584628	0.68
0.617284	0.68
0.657507	0.68
0.706093	0.68
0.763839	0.68
0.831541	0.68
0.909996	0.68
0	0.72
0.090004	0.72
0.168459	0.72
0.236161	0.72
0.293907	0.72
0.342493	0.72
0.382716	0.72
0.415372	0.72
0.441258	0.72
0.461171	0.72
0.475906	0.72
0.48626	0.72
0.493031	0.72
0.497013	0.72
0.499004	0.72
0.499801	0.72
0.500199	0.72
0.500996	0.72
0.502987	0.72
0.506969	0.72
0.51374	0.72
0.524094	0.72
0.538829	0.72
0.558742	0.72
0.584628	0.72
0.617284	0.72
0.657507	0.72
0.706093	0.72
0.763839	0.72
0.831541	0.72
0.909996	0.72
0	0.76
0.090004	0.76
0.168459	0.76
0.236161	0.76
0.293907	0.76
0.342493	0.76
0.382716	0.76
0.415372	0.76
0.441258	0.76
0.461171	0.76
0.475906	0.76
0.48626	0.76
0.493031	0.76
0.497013	0.76
0.499004	0.76
0.499801	0.76
0.500199	0.76
0.500996	0.76
0.502987	0.76
0.506969	0.76
0.51374	0.76
0.524094	0.76
0.538829	0.76
0.558742	0.76
0.584628	0.76
0.617284	0.76
0.657507	0.76
0.706093	0.76
0.763839	0.76
0.831541	0.76
0.909996	0.76
0	0.8
0.090004	0.8
0.168459	0.8
0.236161	0.8
0.293907	0.8
0.342493	0.8
0.382716	0.8
0.415372	0.8
0.441258	0.8
0.461171	0.8
0.475906	0.8
0.48626	0.8
0.493031	0.8
0.497013	0.8
0.499004	0.8
0.499801	0.8
0.500199	0.8
0.500996	0.8
0.502987	0.8
0.506969	0.8
0.51374	0.8
0.524094	0.8
0.538829	0.8
0.558742	0.8
0.584628	0.8
0.617284	0.8
0.657507	0.8
0.706093	0.8
0.763839	0.8
0.831541	0.8
0.909996	0.8
0	0.84
0.090004	0.84
0.168459	0.84
0.236161	0.84
0.293907	0.84
0.342493	0.84
0.382716	0.84
0.415372	0.84
0.441258	0.84
0.461171	0.84
0.475906	0.84
0.48626	0.84
0.493031	0.84
0.497013	0.84
0.499004	0.84
0.499801	0.84
0.500199	0.84
0.500996	0.84
0.502987	0.84
0.506969	0.84
0.51374	0.84
0.524094	0.84
0.538829	0.84
0.558742	0.84
0.584628	0.84
0.617284	0.84
0.657507	0.84
0.706093	0.84
0.763839	0.84
0.831541	0.84
0.909996	0.84
0	0.88
0.090004	0.88
0.168459	0.88
0.236161	0.88
0.293907	0.88
0.342493	0.88
0.382716	0.88
0.415372	0.88
0.441258	0.88
0.461171	0.88
0.475906	0.88
0.48626	0.88
0.493031	0.88
0.497013	0.88
0.499004	0.88
0.499801	0.88
0.500199	0.88
0.500996	0.88
0.502987	0.88
0.506969	0.88
0.51374	0.88
0.524094	0.88
0.538829	0.88
0.558742	0.88
0.584628	0.88
0.617284	0.88
0.657507	0.88
0.706093	0.88
0.763839	0.88
0.831541	0.88
0.909996	0.88
0	0.92
0.090004	0.92
0.168459	0.92
0.236161	0.92
0.293907	0.92
0.342493	0.92
0.382716	0.92
0.415372	0.92
0.441258	0.92
0.461171	0.92
0.475906	0.92
0.48626	0.92
0.493031	0.92
0.497013	0.92
0.499004	0.92
0.499801	0.92
0.500199	0.92
0.500996	0.92
0.502987	0.92
0.506969	0.92
0.51374	0.92
0.524094	0.92
0.538829	0.92
0.558742	0.92
0.584628	0.92
0.617284	0.92
0.657507	0.92
0.706093	0.92
0.763839	0.92
0.831541	0.92
0.909996	0.92
0	0.96
0.090004	0.96
0.168459	0.96
0.236161	0.96
0.293907	0.96
0.342493	0.96
0.382716	0.96
0.415372	0.96
0.441258	0.96
0.461171	0.96
0.475906	0.96
0.48626	0.96
0.493031	0.96
0.497013	0.96
0.499004	0.96
0.499801	0.96
0.500199	0.96
0.500996	0.96
0.502987	0.96
0.506969	0.96
0.51374	0.96
0.524094	0.96
0.538829	0.96
0.558742	0.96
0.584628	0.96
0.617284	0.96
0.657507	0.96
0.706093	0.96
0.763839	0.96
0.831541	0.96
0.909996	0.96
0	1
0.090004	1
0.168459	1
0.236161	1
0.293907	1
0.342493	1
0.382716	1
0.415372	1
0.441258	1
0.461171	1
0.475906	1
0.48626	1
0.493031	1
0.497013	1
0.499004	1
0.499801	1
0.500199	1
0.500996	1
0.502987	1
0.506969	1
0.51374	1
0.524094	1
0.538829	1
0.558742	1
0.584628	1
0.617284	1
0.657507	1
0.706093	1
0.763839	1
0.831541	1
0.909996	1
0	1.04
0.090004	1.04
0.168459	1.04
0.236161	1.04
0.293907	1.04
0.342493	1.04
0.382716	1.04
0.415372	1.04
0.441258	1.04
0.461171	1.04
0.475906	1.04
0.48626	1.04
0.493031	1.04
0.497013	1.04
0.499004	1.04
0.499801	1.04
0.500199	1.04
0.500996	1.04
0.502987	1.04
0.506969	1.04
0.51374	1.04
0.524094	1.04
0.538829	1.04
0.558742	1.04
0.584628	1.04
0.617284	1.04
0.657507	1.04
0.706093	1.04
0.763839	1.04
0.831541	1.04
0.909996	1.04
0	1.08
0.090004	1.08
0.168459	1.08
0.236161	1.08
0.293907	1.08
0.342493	1.08
0.382716	1.08
0.415372	1.08
0.441258	1.08
0.461171	1.08
0.475906	1.08
0.48626	1.08
0.493031	1.08
0.497013	1.08
0.499004	1.08
0.499801	1.08
0.500199	1.08
0.500996	1.08
0.502987	1.08
0.506969	1.08
0.51374	1.08
0.524094	1.08
0.538829	1.08
0.558742	1.08
0.584628	1.08
0.617284	1.08
0.657507	1.08
0.706093	1.08
0.763839	1.08
0.831541	1.08
0.909996	1.08
0	1.12
0.090004	1.12
0.168459	1.12
0.236161	1.12
0.293907	1.12
0.342493	1.12
0.382716	1.12
0.415372	1.12
0.441258	1.12
0.461171	1.12
0.475906	1.12
0.48626	1.12
0.493031	1.12
0.497013	1.12
0.499004	1.12
0.499801	1.12
0.500199	1.12
0.500996	1.12
0.502987	1.12
0.506969	1.12
0.51374	1.12
0.524094	1.12
0.538829	1.12
0.558742	1.12
0.584628	1.12
0.617284	1.12
0.657507	1.12
0.706093	1.12
0.763839	1.12
0.831541	1.12
0.909996	1.12
0	1.16
0.090004	1.16
0.168459	1.16
0.236161	1.16
0.293907	1.16
0.342493	1.16
0.382716	1.16
0.415372	1.16
0.441258	1.16
0.461171	1.16
0.475906	1.16
0.48626	1.16
0.493031	1.16
0.497013	1.16
0.499004	1.16
0.499801	1.16
0.500199	1.16
0.500996	1.16
0.502987	1.16
0.506969	1.16
0.51374	1.16
0.524094	1.16
0.538829	1.16
0.558742	1.16
0.584628	1.16
0.617284	1.16
0.657507	1.16
0.706093	1.16
0.763839	1.16
0.831541	1.16
0.909996	1.16
0	1.2
0.090004	1.2
0.168459	1.2
0.236161	1.2
0.293907	1.2
0.342493	1.2
0.382716	1.2
0.415372	1.2
0.441258	1.2
0.461171	1.2
0.475906	1.2
0.48626	1.2
0.493031	1.2
0.497013	1.2
0.499004	1.2
0.499801	1.2
0.500199	1.2
0.500996	1.2
0.502987	1.2
0.506969	1.2
0.51374	1.2
0.524094	1.2
0.538829	1.2
0.558742	1.2
0.584628	1.2
0.617284	1.2
0.657507	1.2
0.706093	1.2
0.763839	1.2
0.831541	1.2
0.909996	1.2
0	1.24
0.090004	1.24
0.168459	1.24
0.236161	1.24
0.293907	1.24
0.342493	1.24
0.382716	1.24
0.415372	1.24
0.441258	1.24
0.461171	1.24
0.475906	1.24
0.48626	1.24
0.493031	1.24
0.497013	1.24
0.499004	1.24
0.499801	1.24
0.500199	1.24
0.500996	1.24
0.502987	1.24
0.506969	1.24
0.51374	1.24
0.524094	1.24
0.538829	1.24
0.558742	1.24
0.584628	1.24
0.617284	1.24
0.657507	1.24
0.706093	1.24
0.763839	1.24
0.831541	1.24
0.909996	1.24
0	1.28
0.090004	1.28
0.168459	1.28
0.236161	1.28
0.293907	1.28
0.342493	1.28
0.382716	1.28
0.415372	1.28
0.441258	1.28
0.461171	1.28
0.475906	1.28
0.48626	1.28
0.493031	1.28
0.497013	1.28
0.499004	1.28
0.499801	1.28
0.500199	1.28
0.500996	1.28
0.502987	1.28
0.506969	1.28
0.51374	1.28
0.524094	1.28
0.538829	1.28
0.558742	1.28
0.584628	1.28
0.617284	1.28
0.657507	1.28
0.706093	1.28
0.763839	1.28
0.831541	1.28
0.909996	1.28
0	1.32
0.090004	1.32
0.168459	1.32
0.236161	1.32
0.293907	1.32
0.342493	1.32
0.382716	1.32
0.415372	1.32
0.441258	1.32
0.461171	1.32
0.475906	1.32
0.48626	1.32
0.493031	1.32
0.497013	1.32
0.499004	1.32
0.499801	1.32
0.500199	1.32
0.500996	1.32
0.502987	1.32
0.506969	1.32
0.51374	1.32
0.524094	1.32
0.538829	1.32
0.558742	1.32
0.584628	1.32
0.617284	1.32
0.657507	1.32
0.706093	1.32
0.763839	1.32
0.831541	1.32
0.909996	1.32
0	1.36
0.090004	1.36
0.168459	1.36
0.236161	1.36
0.293907	1.36
0.342493	1.36
0.382716	1.36
0.415372	1.36
0.441258	1.36
0.461171	1.36
0.475906	1.36
0.48626	1.36
0.493031	1.36
0.497013	1.36
0.499004	1.36
0.499801	1.36
0.500199	1.36
0.500996	1.36
0.502987	1.36
0.506969	1.36
0.51374	1.36
0.524094	1.36
0.538829	1.36
0.558742	1.36
0.584628	1.36
0.617284	1.36
0.657507	1.36
0.706093	1.36
0.763839	1.36
0.831541	1.36
0.909996	1.36
0	1.4
0.090004	1.4
0.168459	1.4
0.236161	1.4
0.293907	1.4
0.342493	1.4
0.382716	1.4
0.415372	1.4
0.441258	1.4
0.461171	1.4
0.475906	1.4
0.48626	1.4
0.493031	1.4
0.497013	1.4
0.499004	1.4
0.499801	1.4
0.500199	1.4
0.500996	1.4
0.502987	1.4
0.506969	1.4
0.51374	1.4
0.524094	1.4
0.538829	1.4
0.558742	1.4
0.584628	1.4
0.617284	1.4
0.657507	1.4
0.706093	1.4
0.763839	1.4
0.831541	1.4
0.909996	1.4
0	1.44
0.090004	1.44
0.168459	1.44
0.236161	1.44
0.293907	1.44
0.342493	1.44
0.382716	1.44
0.415372	1.44
0.441258	1.44
0.461171	1.44
0.475906	1.44
0.48626	1.44
0.493031	1.44
0.497013	1.44
0.499004	1.44
0.499801	1.44
0.500199	1.44
0.500996	1.44
0.502987	1.44
0.506969	1.44
0.51374	1.44
0.524094	1.44
0.538829	1.44
0.558742	1.44
0.584628	1.44
0.617284	1.44
0.657507	1.44
0.706093	1.44
0.763839	1.44
0.831541	1.44
0.909996	1.44
0	1.48
0.090004	1.48
0.168459	1.48
0.236161	1.48
0.293907	1.48
0.342493	1.48
0.382716	1.48
0.415372	1.48
0.441258	1.48
0.461171	1.48
0.475906	1.48
0.48626	1.48
0.493031	1.48
0.497013	1.48
0.499004	1.48
0.499801	1.48
0.500199	1.48
0.500996	1.48
0.502987	1.48
0.506969	1.48
0.51374	1.48
0.524094	1.48
0.538829	1.48
0.558742	1.48
0.584628	1.48
0.617284	1.48
0.657507	1.48
0.706093	1.48
0.763839	1.48
0.831541	1.48
0.909996	1.48
0	1.52
0.090004	1.52
0.168459	1.52
0.236161	1.52
0.293907	1.52
0.342493	1.52
0.382716	1.52
0.415372	1.52
0.441258	1.52
0.461171	1.52
0.475906	1.52
0.48626	1.52
0.493031	1.52
0.497013	1.52
0.499004	1.52
0.499801	1.52
0.500199	1.52
0.500996	1.52
0.502987	1.52
0.506969	1.52
0.51374	1.52
0.524094	1.52
0.538829	1.52
0.558742	1.52
0.584628	1.52
0.617284	1.52
0.657507	1.52
0.706093	1.52
0.763839	1.52
0.831541	1.52
0.909996	1.52
0	1.56
0.090004	1.56
0.168459	1.56
0.236161	1.56
0.293907	1.56
0.342493	1.56
0.382716	1.56
0.415372	1.56
0.441258	1.56
0.461171	1.56
0.475906	1.56
0.48626	1.56
0.493031	1.56
0.497013	1.56
0.499004	1.56
0.499801	1.56
0.500199	1.56
0.500996	1.56
0.502987	1.56
0.506969	1.56
0.51374	1.56
0.524094	1.56
0.538829	1.56
0.558742	1.56
0.584628	1.56
0.617284	1.56
0.657507	1.56
0.706093	1.56
0.763839	1.56
0.831541	1.56
0.909996	1.56
0	1.6
0.090004	1.6
0.168459	1.6
0.236161	1.6
0.293907	1.6
0.342493	1.6
0.382716	1.6
0.415372	1.6
0.441258	1.6
0.461171	1.6
0.475906	1.6
0.48626	1.6
0.493031	1.6
0.497013	1.6
0.499004	1.6
0.499801	1.6
0.500199	1.6
0.500996	1.6
0.502987	1.6
0.506969	1.6
0.51374	1.6
0.524094	1.6
0.538829	1.6
0.558742	1.6
0.584628	1.6
0.617284	1.6
0.657507	1.6
0.706093	1.6
0.763839	1.6
0.831541	1.6
0.909996	1.6
0	1.64
0.090004	1.64
0.168459	1.64
0.236161	1.64
0.293907	1.64
0.342493	1.64
0.382716	1.64
0.415372	1.64
0.441258	1.64
0.461171	1.64
0.475906	1.64
0.48626	1.64
0.493031	1.64
0.497013	1.64
0.499004	1.64
0.499801	1.64
0.500199	1.64
0.500996	1.64
0.502987	1.64
0.506969	1.64
0.51374	1.64
0.524094	1.64
0.538829	1.64
0.558742	1.64
0.584628	1.64
0.617284	1.64
0.657507	1.64
0.706093	1.64
0.763839	1.64
0.831541	1.64
0.909996	1.64
0	1.68
0.090004	1.68
0.168459	1.68
0.236161	1.68
0.293907	1.68
0.342493	1.68
0.382716	1.68
0.415372	1.68
0.441258	1.68
0.461171	1.68
0.475906	1.68
0.48626	1.68
0.493031	1.68
0.497013	1.68
0.499004	1.68
0.499801	1.68
0.500199	1.68
0.500996	1.68
0.502987	1.68
0.506969	1.68
0.51374	1.68
0.524094	1.68
0.538829	1.68
0.558742	1.68
0.584628	1.68
0.617284	1.68
0.657507	1.68
0.706093	1.68
0.763839	1.68
0.831541	1.68
0.909996	1.68
0	1.72
0.090004	1.72
0.168459	1.72
0.236161	1.72
0.293907	1.72
0.342493	1.72
0.382716	1.72
0.415372	1.72
0.441258	1.72
0.461171	1.72
0.475906	1.72
0.48626	1.72
0.493031	1.72
0.497013	1.72
0.499004	1.72
0.499801	1.72
0.500199	1.72
0.500996	1.72
0.502987	1.72
0.506969	1.72
0.51374	1.72
0.524094	1.72
0.538829	1.72
0.558742	1.72
0.584628	1.72
0.617284	1.72
0.657507	1.72
0.706093	1.72
0.763839	1.72
0.831541	1.72
0.909996	1.72
0	1.76
0.090004	1.76
0.168459	1.76
0.236161	1.76
0.293907	1.76
0.342493	1.76
0.382716	1.76
0.415372	1.76
0.441258	1.76
0.461171	1.76
0.475906	1.76
0.48626	1.76
0.493031	1.76
0.497013	1.76
0.499004	1.76
0.499801	1.76
0.500199	1.76
0.500996	1.76
0.502987	1.76
0.506969	1.76
0.51374	1.76
0.524094	1.76
0.538829	1.76
0.558742	1.76
0.584628	1.76
0.617284	1.76
0.657507	1.76
0.706093	1.76
0.763839	1.76
0.831541	1.76
0.909996	1.76
0	1.8
0.090004	1.8
0.168459	1.8
0.236161	1.8
0.293907	1.8
0.342493	1.8
0.382716	1.8
0.415372	1.8
0.441258	1.8
0.461171	1.8
0.475906	1.8
0.48626	1.8
0.493031	1.8
0.497013	1.8
0.499004	1.8
0.499801	1.8
0.500199	1.8
0.500996	1.8
0.502987	1.8
0.506969	1.8
0.51374	1.8
0.524094	1.8
0.538829	1.8
0.558742	1.8
0.584628	1.8
0.617284	1.8
0.657507	1.8
0.706093	1.8
0.763839	1.8
0.831541	1.8
0.909996	1.8
0	1.84
0.090004	1.84
0.168459	1.84
0.236161	1.84
0.293907	1.84
0.342493	1.84
0.382716	1.84
0.415372	1.84
0.441258	1.84
0.461171	1.84
0.475906	1.84
0.48626	1.84
0.493031	1.84
0.497013	1.84
0.499004	1.84
0.499801	1.84
0.500199	1.84
0.500996	1.84
0.502987	1.84
0.506969	1.84
0.51374	1.84
0.524094	1.84
0.538829	1.84
0.558742	1.84
0.584628	1.84
0.617284	1.84
0.657507	1.84
0.706093	1.84
0.763839	1.84
0.831541	1.84
0.909996	1.84
0	1.88
0.090004	1.88
0.168459	1.88
0.236161	1.88
0.293907	1.88
0.342493	1.88
0.382716	1.88
0.415372	1.88
0.441258	1.88
0.461171	1.88
0.475906	1.88
0.48626	1.88
0.493031	1.88
0.497013	1.88
0.499004	1.88
0.499801	1.88
0.500199	1.88
0.500996	1.88
0.502987	1.88
0.506969	1.88
0.51374	1.88
0.524094	1.88
0.538829	1.88
0.558742	1.88
0.584628	1.88
0.617284	1.88
0.657507	1.88
0.706093	1.88
0.763839	1.88
0.831541	1.88
0.909996	1.88
0	1.92
0.090004	1.92
0.168459	1.92
0.236161	1.92
0.293907	1.92
0.342493	1.92
0.382716	1.92
0.415372	1.92
0.441258	1.92
0.461171	1.92
0.475906	1.92
0.48626	1.92
0.493031	1.92
0.497013	1.92
0.499004	1.92
0.499801	1.92
0.500199	1.92
0.500996	1.92
0.502987	1.92
0.506969	1.92
0.51374	1.92
0.524094	1.92
0.538829	1.92
0.558742	1.92
0.584628	1.92
0.617284	1.92
0.657507	1.92
0.706093	1.92
0.763839	1.92
0.831541	1.92
0.909996	1.92
0	1.96
0.090004	1.96
0.168459	1.96
0.236161	1.96
0.293907	1.96
0.342493	1.96
0.382716	1.96
0.415372	1.96
0.441258	1.96
0.461171	1.96
0.475906	1.96
0.48626	1.96
0.493031	1.96
0.497013	1.96
0.499004	1.96
0.499801	1.96
0.500199	1.96
0.500996	1.96
0.502987	1.96
0.506969	1.96
0.51374	1.96
0.524094	1.96
0.538829	1.96
0.558742	1.96
0.584628	1.96
0.617284	1.96
0.657507	1.96
0.706093	1.96
0.763839	1.96
0.831541	1.96
0.909996	1.96
0	2
0.090004	2
0.168459	2
0.236161	2
0.293907	2
0.342493	2
0.382716	2
0.415372	2
0.441258	2
0.461171	2
0.475906	2
0.48626	2
0.493031	2
0.497013	2
0.499004	2
0.499801	2
0.500199	2
0.500996	2
0.502987	2
0.506969	2
0.51374	2
0.524094	2
0.538829	2
0.558742	2
0.584628	2
0.617284	2
0.657507	2
0.706093	2
0.763839	2
0.831541	2
0.909996	2
