VARIABLES = X Y
ZONE I = 31, J = 51, F = POINT
0	0
0.0784548	0
0.146157	0
0.203903	0
0.252489	0
0.292712	0
0.325368	0
0.351254	0
0.371167	0
0.385902	0
0.396256	0
0.403027	0
0.407009	0
0.409	0
0.409797	0
0.410195	0
0.410992	0
0.412983	0
0.416965	0
0.423736	0
0.43409	0
0.448825	0
0.468738	0
0.494624	0
0.52728	0
0.567503	0
0.616089	0
0.673835	0
0.741537	0
0.819992	0
0.909996	0
0	0.04
0.0784548	0.04
0.146157	0.04
0.203903	0.04
0.252489	0.04
0.292712	0.04
0.325368	0.04
0.351254	0.04
0.371167	0.04
0.385902	0.04
0.396256	0.04
0.403027	0.04
0.407009	0.04
0.409	0.04
0.409797	0.04
0.410195	0.04
0.410992	0.04
0.412983	0.04
0.416965	0.04
0.423736	0.04
0.43409	0.04
0.448825	0.04
0.468738	0.04
0.494624	0.04
0.52728	0.04
0.567503	0.04
0.616089	0.04
0.673835	0.04
0.741537	0.04
0.819992	0.04
0.909996	0.04
0	0.08
0.0784548	0.08
0.146157	0.08
0.203903	0.08
0.252489	0.08
0.292712	0.08
0.325368	0.08
0.351254	0.08
0.371167	0.08
0.385902	0.08
0.396256	0.08
0.403027	0.08
0.407009	0.08
0.409	0.08
0.409797	0.08
0.410195	0.08
0.410992	0.08
0.412983	0.08
0.416965	0.08
0.423736	0.08
0.43409	0.08
0.448825	0.08
0.468738	0.08
0.494624	0.08
0.52728	0.08
0.567503	0.08
0.616089	0.08
0.673835	0.08
0.741537	0.08
0.819992	0.08
0.909996	0.08
0	0.12
0.0784548	0.12
0.146157	0.12
0.203903	0.12
0.252489	0.12
0.292712	0.12
0.325368	0.12
0.351254	0.12
0.371167	0.12
0.385902	0.12
0.396256	0.12
0.403027	0.12
0.407009	0.12
0.409	0.12
0.409797	0.12
0.410195	0.12
0.410992	0.12
0.412983	0.12
0.416965	0.12
0.423736	0.12
0.43409	0.12
0.448825	0.12
0.468738	0.12
0.494624	0.12
0.52728	0.12
0.567503	0.12
0.616089	0.12
0.673835	0.12
0.741537	0.12
0.819992	0.12
0.909996	0.12
0	0.16
0.0784548	0.16
0.146157	0.16
0.203903	0.16
0.252489	0.16
0.292712	0.16
0.325368	0.16
0.351254	0.16
0.371167	0.16
0.385902	0.16
0.396256	0.16
0.403027	0.16
0.407009	0.16
0.409	0.16
0.409797	0.16
0.410195	0.16
0.410992	0.16
0.412983	0.16
0.416965	0.16
0.423736	0.16
0.43409	0.16
0.448825	0.16
0.468738	0.16
0.494624	0.16
0.52728	0.16
0.567503	0.16
0.616089	0.16
0.673835	0.16
0.741537	0.16
0.819992	0.16
0.909996	0.16
0	0.2
0.0784548	0.2
0.146157	0.2
0.203903	0.2
0.252489	0.2
0.292712	0.2
0.325368	0.2
0.351254	0.2
0.371167	0.2
0.385902	0.2
0.396256	0.2
0.403027	0.2
0.407009	0.2
0.409	0.2
0.409797	0.2
0.410195	0.2
0.410992	0.2
0.412983	0.2
0.416965	0.2
0.423736	0.2
0.43409	0.2
0.448825	0.2
0.468738	0.2
0.494624	0.2
0.52728	0.2
0.567503	0.2
0.616089	0.2
0.673835	0.2
0.741537	0.2
0.819992	0.2
0.909996	0.2
0	0.24
0.0784548	0.24
0.146157	0.24
0.203903	0.24
0.252489	0.24
0.292712	0.24
0.325368	0.24
0.351254	0.24
0.371167	0.24
0.385902	0.24
0.396256	0.24
0.403027	0.24
0.407009	0.24
0.409	0.24
0.409797	0.24
0.410195	0.24
0.410992	0.24
0.412983	0.24
0.416965	0.24
0.423736	0.24
0.43409	0.24
0.448825	0.24
0.468738	0.24
0.494624	0.24
0.52728	0.24
0.567503	0.24
0.616089	0.24
0.673835	0.24
0.741537	0.24
0.819992	0.24
0.909996	0.24
0	0.28
0.0784548	0.28
0.146157	0.28
0.203903	0.28
0.252489	0.28
0.292712	0.28
0.325368	0.28
0.351254	0.28
0.371167	0.28
0.385902	0.28
0.396256	0.28
0.403027	0.28
0.407009	0.28
0.409	0.28
0.409797	0.28
0.410195	0.28
0.410992	0.28
0.412983	0.28
0.416965	0.28
0.423736	0.28
0.43409	0.28
0.448825	0.28
0.468738	0.28
0.494624	0.28
0.52728	0.28
0.567503	0.28
0.616089	0.28
0.673835	0.28
0.741537	0.28
0.819992	0.28
0.909996	0.28
0	0.32
0.0784548	0.32
0.146157	0.32
0.203903	0.32
0.252489	0.32
0.292712	0.32
0.325368	0.32
0.351254	0.32
0.371167	0.32
0.385902	0.32
0.396256	0.32
0.403027	0.32
0.407009	0.32
0.409	0.32
0.409797	0.32
0.410195	0.32
0.410992	0.32
0.412983	0.32
0.416965	0.32
0.423736	0.32
0.43409	0.32
0.448825	0.32
0.468738	0.32
0.494624	0.32
0.52728	0.32
0.567503	0.32
0.616089	0.32
0.673835	0.32
0.741537	0.32
0.819992	0.32
0.909996	0.32
0	0.36
0.0784548	0.36
0.146157	0.36
0.203903	0.36
0.252489	0.36
0.292712	0.36
0.325368	0.36
0.351254	0.36
0.371167	0.36
0.385902	0.36
0.396256	0.36
0.403027	0.36
0.407009	0.36
0.409	0.36
0.409797	0.36
0.410195	0.36
0.410992	0.36
0.412983	0.36
0.416965	0.36
0.423736	0.36
0.43409	0.36
0.448825	0.36
0.468738	0.36
0.494624	0.36
0.52728	0.36
0.567503	0.36
0.616089	0.36
0.673835	0.36
0.741537	0.36
0.819992	0.36
0.909996	0.36
0	0.4
0.0784548	0.4
0.146157	0.4
0.203903	0.4
0.252489	0.4
0.292712	0.4
0.325368	0.4
0.351254	0.4
0.371167	0.4
0.385902	0.4
0.396256	0.4
0.403027	0.4
0.407009	0.4
0.409	0.4
0.409797	0.4
0.410195	0.4
0.410992	0.4
0.412983	0.4
0.416965	0.4
0.423736	0.4
0.43409	0.4
0.448825	0.4
0.468738	0.4
0.494624	0.4
0.52728	0.4
0.567503	0.4
0.616089	0.4
0.673835	0.4
0.741537	0.4
0.819992	0.4
0.909996	0.4
0	0.44
0.0784548	0.44
0.146157	0.44
0.203903	0.44
0.252489	0.44
0.292712	0.44
0.325368	0.44
0.351254	0.44
0.371167	0.44
0.385902	0.44
0.396256	0.44
0.403027	0.44
0.407009	0.44
0.409	0.44
0.409797	0.44
0.410195	0.44
0.410992	0.44
0.412983	0.44
0.416965	0.44
0.423736	0.44
0.43409	0.44
0.448825	0.44
0.468738	0.44
0.494624	0.44
0.52728	0.44
0.567503	0.44
0.616089	0.44
0.673835	0.44
0.741537	0.44
0.819992	0.44
0.909996	0.44
0	0.48
0.0784548	0.48
0.146157	0.48
0.203903	0.48
0.252489	0.48
0.292712	0.48
0.325368	0.48
0.351254	0.48
0.371167	0.48
0.385902	0.48
0.396256	0.48
0.403027	0.48
0.407009	0.48
0.409	0.48
0.409797	0.48
0.410195	0.48
0.410992	0.48
0.412983	0.48
0.416965	0.48
0.423736	0.48
0.43409	0.48
0.448825	0.48
0.468738	0.48
0.494624	0.48
0.52728	0.48
0.567503	0.48
0.616089	0.48
0.673835	0.48
0.741537	0.48
0.819992	0.48
0.909996	0.48
0	0.52
0.0784548	0.52
0.146157	0.52
0.203903	0.52
0.252489	0.52
0.292712	0.52
0.325368	0.52
0.351254	0.52
0.371167	0.52
0.385902	0.52
0.396256	0.52
0.403027	0.52
0.407009	0.52
0.409	0.52
0.409797	0.52
0.410195	0.52
0.410992	0.52
0.412983	0.52
0.416965	0.52
0.423736	0.52
0.43409	0.52
0.448825	0.52
0.468738	0.52
0.494624	0.52
0.52728	0.52
0.567503	0.52
0.616089	0.52
0.673835	0.52
0.741537	0.52
0.819992	0.52
0.909996	0.52
0	0.56
0.0784548	0.56
0.146157	0.56
0.203903	0.56
0.252489	0.56
0.292712	0.56
0.325368	0.56
0.351254	0.56
0.371167	0.56
0.385902	0.56
0.396256	0.56
0.403027	0.56
0.407009	0.56
0.409	0.56
0.409797	0.56
0.410195	0.56
0.410992	0.56
0.412983	0.56
0.416965	0.56
0.423736	0.56
0.43409	0.56
0.448825	0.56
0.468738	0.56
0.494624	0.56
0.52728	0.56
0.567503	0.56
0.616089	0.56
0.673835	0.56
0.741537	0.56
0.819992	0.56
0.909996	0.56
0	0.6
0.0784548	0.6
0.146157	0.6
0.203903	0.6
0.252489	0.6
0.292712	0.6
0.325368	0.6
0.351254	0.6
0.371167	0.6
0.385902	0.6
0.396256	0.6
0.403027	0.6
0.407009	0.6
0.409	0.6
0.409797	0.6
0.410195	0.6
0.410992	0.6
0.412983	0.6
0.416965	0.6
0.423736	0.6
0.43409	0.6
0.448825	0.6
0.468738	0.6
0.494624	0.6
0.52728	0.6
0.567503	0.6
0.616089	0.6
0.673835	0.6
0.741537	0.6
0.819992	0.6
0.909996	0.6
0	0.64
0.0784548	0.64
0.146157	0.64
0.203903	0.64
0.252489	0.64
0.292712	0.64
0.325368	0.64
0.351254	0.64
0.371167	0.64
0.385902	0.64
0.396256	0.64
0.403027	0.64
0.407009	0.64
0.409	0.64
0.409797	0.64
0.410195	0.64
0.410992	0.64
0.412983	0.64
0.416965	0.64
0.423736	0.64
0.43409	0.64
0.448825	0.64
0.468738	0.64
0.494624	0.64
0.52728	0.64
0.567503	0.64
0.616089	0.64
0.673835	0.64
0.741537	0.64
0.819992	0.64
0.909996	0.64
0	0.68
0.0784548	0.68
0.146157	0.68
0.203903	0.68
0.252489	0.68
0.292712	0.68
0.325368	0.68
0.351254	0.68
0.371167	0.68
0.385902	0.68
0.396256	0.68
0.403027	0.68
0.407009	0.68
0.409	0.68
0.409797	0.68
0.410195	0.68
0.410992	0.68
0.412983	0.68
0.416965	0.68
0.423736	0.68
0.43409	0.68
0.448825	0.68
0.468738	0.68
0.494624	0.68
0.52728	0.68
0.567503	0.68
0.616089	0.68
0.673835	0.68
0.741537	0.68
0.819992	0.68
0.909996	0.68
0	0.72
0.0784548	0.72
0.146157	0.72
0.203903	0.72
0.252489	0.72
0.292712	0.72
0.325368	0.72
0.351254	0.72
0.371167	0.72
0.385902	0.72
0.396256	0.72
0.403027	0.72
0.407009	0.72
0.409	0.72
0.409797	0.72
0.410195	0.72
0.410992	0.72
0.412983	0.72
0.416965	0.72
0.423736	0.72
0.43409	0.72
0.448825	0.72
0.468738	0.72
0.494624	0.72
0.52728	0.72
0.567503	0.72
0.616089	0.72
0.673835	0.72
0.741537	0.72
0.819992	0.72
0.909996	0.72
0	0.76
0.0784548	0.76
0.146157	0.76
0.203903	0.76
0.252489	0.76
0.292712	0.76
0.325368	0.76
0.351254	0.76
0.371167	0.76
0.385902	0.76
0.396256	0.76
0.403027	0.76
0.407009	0.76
0.409	0.76
0.409797	0.76
0.410195	0.76
0.410992	0.76
0.412983	0.76
0.416965	0.76
0.423736	0.76
0.43409	0.76
0.448825	0.76
0.468738	0.76
0.494624	0.76
0.52728	0.76
0.567503	0.76
0.616089	0.76
0.673835	0.76
0.741537	0.76
0.819992	0.76
0.909996	0.76
0	0.8
0.0784548	0.8
0.146157	0.8
0.203903	0.8
0.252489	0.8
0.292712	0.8
0.325368	0.8
0.351254	0.8
0.371167	0.8
0.385902	0.8
0.396256	0.8
0.403027	0.8
0.407009	0.8
0.409	0.8
0.409797	0.8
0.410195	0.8
0.410992	0.8
0.412983	0.8
0.416965	0.8
0.423736	0.8
0.43409	0.8
0.448825	0.8
0.468738	0.8
0.494624	0.8
0.52728	0.8
0.567503	0.8
0.616089	0.8
0.673835	0.8
0.741537	0.8
0.819992	0.8
0.909996	0.8
0	0.84
0.0784548	0.84
0.146157	0.84
0.203903	0.84
0.252489	0.84
0.292712	0.84
0.325368	0.84
0.351254	0.84
0.371167	0.84
0.385902	0.84
0.396256	0.84
0.403027	0.84
0.407009	0.84
0.409	0.84
0.409797	0.84
0.410195	0.84
0.410992	0.84
0.412983	0.84
0.416965	0.84
0.423736	0.84
0.43409	0.84
0.448825	0.84
0.468738	0.84
0.494624	0.84
0.52728	0.84
0.567503	0.84
0.616089	0.84
0.673835	0.84
0.741537	0.84
0.819992	0.84
0.909996	0.84
0	0.88
0.0784548	0.88
0.146157	0.88
0.203903	0.88
0.252489	0.88
0.292712	0.88
0.325368	0.88
0.351254	0.88
0.371167	0.88
0.385902	0.88
0.396256	0.88
0.403027	0.88
0.407009	0.88
0.409	0.88
0.409797	0.88
0.410195	0.88
0.410992	0.88
0.412983	0.88
0.416965	0.88
0.423736	0.88
0.43409	0.88
0.448825	0.88
0.468738	0.88
0.494624	0.88
0.52728	0.88
0.567503	0.88
0.616089	0.88
0.673835	0.88
0.741537	0.88
0.819992	0.88
0.909996	0.88
0	0.92
0.0784548	0.92
0.146157	0.92
0.203903	0.92
0.252489	0.92
0.292712	0.92
0.325368	0.92
0.351254	0.92
0.371167	0.92
0.385902	0.92
0.396256	0.92
0.403027	0.92
0.407009	0.92
0.409	0.92
0.409797	0.92
0.410195	0.92
0.410992	0.92
0.412983	0.92
0.416965	0.92
0.423736	0.92
0.43409	0.92
0.448825	0.92
0.468738	0.92
0.494624	0.92
0.52728	0.92
0.567503	0.92
0.616089	0.92
0.673835	0.92
0.741537	0.92
0.819992	0.92
0.909996	0.92
0	0.96
0.0784548	0.96
0.146157	0.96
0.203903	0.96
0.252489	0.96
0.292712	0.96
0.325368	0.96
0.351254	0.96
0.371167	0.96
0.385902	0.96
0.396256	0.96
0.403027	0.96
0.407009	0.96
0.409	0.96
0.409797	0.96
0.410195	0.96
0.410992	0.96
0.412983	0.96
0.416965	0.96
0.423736	0.96
0.43409	0.96
0.448825	0.96
0.468738	0.96
0.494624	0.96
0.52728	0.96
0.567503	0.96
0.616089	0.96
0.673835	0.96
0.741537	0.96
0.819992	0.96
0.909996	0.96
0	1
0.0784548	1
0.146157	1
0.203903	1
0.252489	1
0.292712	1
0.325368	1
0.351254	1
0.371167	1
0.385902	1
0.396256	1
0.403027	1
0.407009	1
0.409	1
0.409797	1
0.410195	1
0.410992	1
0.412983	1
0.416965	1
0.423736	1
0.43409	1
0.448825	1
0.468738	1
0.494624	1
0.52728	1
0.567503	1
0.616089	1
0.673835	1
0.741537	1
0.819992	1
0.909996	1
0	1.04
0.0784548	1.04
0.146157	1.04
0.203903	1.04
0.252489	1.04
0.292712	1.04
0.325368	1.04
0.351254	1.04
0.371167	1.04
0.385902	1.04
0.396256	1.04
0.403027	1.04
0.407009	1.04
0.409	1.04
0.409797	1.04
0.410195	1.04
0.410992	1.04
0.412983	1.04
0.416965	1.04
0.423736	1.04
0.43409	1.04
0.448825	1.04
0.468738	1.04
0.494624	1.04
0.52728	1.04
0.567503	1.04
0.616089	1.04
0.673835	1.04
0.741537	1.04
0.819992	1.04
0.909996	1.04
0	1.08
0.0784548	1.08
0.146157	1.08
0.203903	1.08
0.252489	1.08
0.292712	1.08
0.325368	1.08
0.351254	1.08
0.371167	1.08
0.385902	1.08
0.396256	1.08
0.403027	1.08
0.407009	1.08
0.409	1.08
0.409797	1.08
0.410195	1.08
0.410992	1.08
0.412983	1.08
0.416965	1.08
0.423736	1.08
0.43409	1.08
0.448825	1.08
0.468738	1.08
0.494624	1.08
0.52728	1.08
0.567503	1.08
0.616089	1.08
0.673835	1.08
0.741537	1.08
0.819992	1.08
0.909996	1.08
0	1.12
0.0784548	1.12
0.146157	1.12
0.203903	1.12
0.252489	1.12
0.292712	1.12
0.325368	1.12
0.351254	1.12
0.371167	1.12
0.385902	1.12
0.396256	1.12
0.403027	1.12
0.407009	1.12
0.409	1.12
0.409797	1.12
0.410195	1.12
0.410992	1.12
0.412983	1.12
0.416965	1.12
0.423736	1.12
0.43409	1.12
0.448825	1.12
0.468738	1.12
0.494624	1.12
0.52728	1.12
0.567503	1.12
0.616089	1.12
0.673835	1.12
0.741537	1.12
0.819992	1.12
0.909996	1.12
0	1.16
0.0784548	1.16
0.146157	1.16
0.203903	1.16
0.252489	1.16
0.292712	1.16
0.325368	1.16
0.351254	1.16
0.371167	1.16
0.385902	1.16
0.396256	1.16
0.403027	1.16
0.407009	1.16
0.409	1.16
0.409797	1.16
0.410195	1.16
0.410992	1.16
0.412983	1.16
0.416965	1.16
0.423736	1.16
0.43409	1.16
0.448825	1.16
0.468738	1.16
0.494624	1.16
0.52728	1.16
0.567503	1.16
0.616089	1.16
0.673835	1.16
0.741537	1.16
0.819992	1.16
0.909996	1.16
0	1.2
0.0784548	1.2
0.146157	1.2
0.203903	1.2
0.252489	1.2
0.292712	1.2
0.325368	1.2
0.351254	1.2
0.371167	1.2
0.385902	1.2
0.396256	1.2
0.403027	1.2
0.407009	1.2
0.409	1.2
0.409797	1.2
0.410195	1.2
0.410992	1.2
0.412983	1.2
0.416965	1.2
0.423736	1.2
0.43409	1.2
0.448825	1.2
0.468738	1.2
0.494624	1.2
0.52728	1.2
0.567503	1.2
0.616089	1.2
0.673835	1.2
0.741537	1.2
0.819992	1.2
0.909996	1.2
0	1.24
0.0784548	1.24
0.146157	1.24
0.203903	1.24
0.252489	1.24
0.292712	1.24
0.325368	1.24
0.351254	1.24
0.371167	1.24
0.385902	1.24
0.396256	1.24
0.403027	1.24
0.407009	1.24
0.409	1.24
0.409797	1.24
0.410195	1.24
0.410992	1.24
0.412983	1.24
0.416965	1.24
0.423736	1.24
0.43409	1.24
0.448825	1.24
0.468738	1.24
0.494624	1.24
0.52728	1.24
0.567503	1.24
0.616089	1.24
0.673835	1.24
0.741537	1.24
0.819992	1.24
0.909996	1.24
0	1.28
0.0784548	1.28
0.146157	1.28
0.203903	1.28
0.252489	1.28
0.292712	1.28
0.325368	1.28
0.351254	1.28
0.371167	1.28
0.385902	1.28
0.396256	1.28
0.403027	1.28
0.407009	1.28
0.409	1.28
0.409797	1.28
0.410195	1.28
0.410992	1.28
0.412983	1.28
0.416965	1.28
0.423736	1.28
0.43409	1.28
0.448825	1.28
0.468738	1.28
0.494624	1.28
0.52728	1.28
0.567503	1.28
0.616089	1.28
0.673835	1.28
0.741537	1.28
0.819992	1.28
0.909996	1.28
0	1.32
0.0784548	1.32
0.146157	1.32
0.203903	1.32
0.252489	1.32
0.292712	1.32
0.325368	1.32
0.351254	1.32
0.371167	1.32
0.385902	1.32
0.396256	1.32
0.403027	1.32
0.407009	1.32
0.409	1.32
0.409797	1.32
0.410195	1.32
0.410992	1.32
0.412983	1.32
0.416965	1.32
0.423736	1.32
0.43409	1.32
0.448825	1.32
0.468738	1.32
0.494624	1.32
0.52728	1.32
0.567503	1.32
0.616089	1.32
0.673835	1.32
0.741537	1.32
0.819992	1.32
0.909996	1.32
0	1.36
0.0784548	1.36
0.146157	1.36
0.203903	1.36
0.252489	1.36
0.292712	1.36
0.325368	1.36
0.351254	1.36
0.371167	1.36
0.385902	1.36
0.396256	1.36
0.403027	1.36
0.407009	1.36
0.409	1.36
0.409797	1.36
0.410195	1.36
0.410992	1.36
0.412983	1.36
0.416965	1.36
0.423736	1.36
0.43409	1.36
0.448825	1.36
0.468738	1.36
0.494624	1.36
0.52728	1.36
0.567503	1.36
0.616089	1.36
0.673835	1.36
0.741537	1.36
0.819992	1.36
0.909996	1.36
0	1.4
0.0784548	1.4
0.146157	1.4
0.203903	1.4
0.252489	1.4
0.292712	1.4
0.325368	1.4
0.351254	1.4
0.371167	1.4
0.385902	1.4
0.396256	1.4
0.403027	1.4
0.407009	1.4
0.409	1.4
0.409797	1.4
0.410195	1.4
0.410992	1.4
0.412983	1.4
0.416965	1.4
0.423736	1.4
0.43409	1.4
0.448825	1.4
0.468738	1.4
0.494624	1.4
0.52728	1.4
0.567503	1.4
0.616089	1.4
0.673835	1.4
0.741537	1.4
0.819992	1.4
0.909996	1.4
0	1.44
0.0784548	1.44
0.146157	1.44
0.203903	1.44
0.252489	1.44
0.292712	1.44
0.325368	1.44
0.351254	1.44
0.371167	1.44
0.385902	1.44
0.396256	1.44
0.403027	1.44
0.407009	1.44
0.409	1.44
0.409797	1.44
0.410195	1.44
0.410992	1.44
0.412983	1.44
0.416965	1.44
0.423736	1.44
0.43409	1.44
0.448825	1.44
0.468738	1.44
0.494624	1.44
0.52728	1.44
0.567503	1.44
0.616089	1.44
0.673835	1.44
0.741537	1.44
0.819992	1.44
0.909996	1.44
0	1.48
0.0784548	1.48
0.146157	1.48
0.203903	1.48
0.252489	1.48
0.292712	1.48
0.325368	1.48
0.351254	1.48
0.371167	1.48
0.385902	1.48
0.396256	1.48
0.403027	1.48
0.407009	1.48
0.409	1.48
0.409797	1.48
0.410195	1.48
0.410992	1.48
0.412983	1.48
0.416965	1.48
0.423736	1.48
0.43409	1.48
0.448825	1.48
0.468738	1.48
0.494624	1.48
0.52728	1.48
0.567503	1.48
0.616089	1.48
0.673835	1.48
0.741537	1.48
0.819992	1.48
0.909996	1.48
0	1.52
0.0784548	1.52
0.146157	1.52
0.203903	1.52
0.252489	1.52
0.292712	1.52
0.325368	1.52
0.351254	1.52
0.371167	1.52
0.385902	1.52
0.396256	1.52
0.403027	1.52
0.407009	1.52
0.409	1.52
0.409797	1.52
0.410195	1.52
0.410992	1.52
0.412983	1.52
0.416965	1.52
0.423736	1.52
0.43409	1.52
0.448825	1.52
0.468738	1.52
0.494624	1.52
0.52728	1.52
0.567503	1.52
0.616089	1.52
0.673835	1.52
0.741537	1.52
0.819992	1.52
0.909996	1.52
0	1.56
0.0784548	1.56
0.146157	1.56
0.203903	1.56
0.252489	1.56
0.292712	1.56
0.325368	1.56
0.351254	1.56
0.371167	1.56
0.385902	1.56
0.396256	1.56
0.403027	1.56
0.407009	1.56
0.409	1.56
0.409797	1.56
0.410195	1.56
0.410992	1.56
0.412983	1.56
0.416965	1.56
0.423736	1.56
0.43409	1.56
0.448825	1.56
0.468738	1.56
0.494624	1.56
0.52728	1.56
0.567503	1.56
0.616089	1.56
0.673835	1.56
0.741537	1.56
0.819992	1.56
0.909996	1.56
0	1.6
0.0784548	1.6
0.146157	1.6
0.203903	1.6
0.252489	1.6
0.292712	1.6
0.325368	1.6
0.351254	1.6
0.371167	1.6
0.385902	1.6
0.396256	1.6
0.403027	1.6
0.407009	1.6
0.409	1.6
0.409797	1.6
0.410195	1.6
0.410992	1.6
0.412983	1.6
0.416965	1.6
0.423736	1.6
0.43409	1.6
0.448825	1.6
0.468738	1.6
0.494624	1.6
0.52728	1.6
0.567503	1.6
0.616089	1.6
0.673835	1.6
0.741537	1.6
0.819992	1.6
0.909996	1.6
0	1.64
0.0784548	1.64
0.146157	1.64
0.203903	1.64
0.252489	1.64
0.292712	1.64
0.325368	1.64
0.351254	1.64
0.371167	1.64
0.385902	1.64
0.396256	1.64
0.403027	1.64
0.407009	1.64
0.409	1.64
0.409797	1.64
0.410195	1.64
0.410992	1.64
0.412983	1.64
0.416965	1.64
0.423736	1.64
0.43409	1.64
0.448825	1.64
0.468738	1.64
0.494624	1.64
0.52728	1.64
0.567503	1.64
0.616089	1.64
0.673835	1.64
0.741537	1.64
0.819992	1.64
0.909996	1.64
0	1.68
0.0784548	1.68
0.146157	1.68
0.203903	1.68
0.252489	1.68
0.292712	1.68
0.325368	1.68
0.351254	1.68
0.371167	1.68
0.385902	1.68
0.396256	1.68
0.403027	1.68
0.407009	1.68
0.409	1.68
0.409797	1.68
0.410195	1.68
0.410992	1.68
0.412983	1.68
0.416965	1.68
0.423736	1.68
0.43409	1.68
0.448825	1.68
0.468738	1.68
0.494624	1.68
0.52728	1.68
0.567503	1.68
0.616089	1.68
0.673835	1.68
0.741537	1.68
0.819992	1.68
0.909996	1.68
0	1.72
0.0784548	1.72
0.146157	1.72
0.203903	1.72
0.252489	1.72
0.292712	1.72
0.325368	1.72
0.351254	1.72
0.371167	1.72
0.385902	1.72
0.396256	1.72
0.403027	1.72
0.407009	1.72
0.409	1.72
0.409797	1.72
0.410195	1.72
0.410992	1.72
0.412983	1.72
0.416965	1.72
0.423736	1.72
0.43409	1.72
0.448825	1.72
0.468738	1.72
0.494624	1.72
0.52728	1.72
0.567503	1.72
0.616089	1.72
0.673835	1.72
0.741537	1.72
0.819992	1.72
0.909996	1.72
0	1.76
0.0784548	1.76
0.146157	1.76
0.203903	1.76
0.252489	1.76
0.292712	1.76
0.325368	1.76
0.351254	1.76
0.371167	1.76
0.385902	1.76
0.396256	1.76
0.403027	1.76
0.407009	1.76
0.409	1.76
0.409797	1.76
0.410195	1.76
0.410992	1.76
0.412983	1.76
0.416965	1.76
0.423736	1.76
0.43409	1.76
0.448825	1.76
0.468738	1.76
0.494624	1.76
0.52728	1.76
0.567503	1.76
0.616089	1.76
0.673835	1.76
0.741537	1.76
0.819992	1.76
0.909996	1.76
0	1.8
0.0784548	1.8
0.146157	1.8
0.203903	1.8
0.252489	1.8
0.292712	1.8
0.325368	1.8
0.351254	1.8
0.371167	1.8
0.385902	1.8
0.396256	1.8
0.403027	1.8
0.407009	1.8
0.409	1.8
0.409797	1.8
0.410195	1.8
0.410992	1.8
0.412983	1.8
0.416965	1.8
0.423736	1.8
0.43409	1.8
0.448825	1.8
0.468738	1.8
0.494624	1.8
0.52728	1.8
0.567503	1.8
0.616089	1.8
0.673835	1.8
0.741537	1.8
0.819992	1.8
0.909996	1.8
0	1.84
0.0784548	1.84
0.146157	1.84
0.203903	1.84
0.252489	1.84
0.292712	1.84
0.325368	1.84
0.351254	1.84
0.371167	1.84
0.385902	1.84
0.396256	1.84
0.403027	1.84
0.407009	1.84
0.409	1.84
0.409797	1.84
0.410195	1.84
0.410992	1.84
0.412983	1.84
0.416965	1.84
0.423736	1.84
0.43409	1.84
0.448825	1.84
0.468738	1.84
0.494624	1.84
0.52728	1.84
0.567503	1.84
0.616089	1.84
0.673835	1.84
0.741537	1.84
0.819992	1.84
0.909996	1.84
0	1.88
0.0784548	1.88
0.146157	1.88
0.203903	1.88
0.252489	1.88
0.292712	1.88
0.325368	1.88
0.351254	1.88
0.371167	1.88
0.385902	1.88
0.396256	1.88
0.403027	1.88
0.407009	1.88
0.409	1.88
0.409797	1.88
0.410195	1.88
0.410992	1.88
0.412983	1.88
0.416965	1.88
0.423736	1.88
0.43409	1.88
0.448825	1.88
0.468738	1.88
0.494624	1.88
0.52728	1.88
0.567503	1.88
0.616089	1.88
0.673835	1.88
0.741537	1.88
0.819992	1.88
0.909996	1.88
0	1.92
0.0784548	1.92
0.146157	1.92
0.203903	1.92
0.252489	1.92
0.292712	1.92
0.325368	1.92
0.351254	1.92
0.371167	1.92
0.385902	1.92
0.396256	1.92
0.403027	1.92
0.407009	1.92
0.409	1.92
0.409797	1.92
0.410195	1.92
0.410992	1.92
0.412983	1.92
0.416965	1.92
0.423736	1.92
0.43409	1.92
0.448825	1.92
0.468738	1.92
0.494624	1.92
0.52728	1.92
0.567503	1.92
0.616089	1.92
0.673835	1.92
0.741537	1.92
0.819992	1.92
0.909996	1.92
0	1.96
0.0784548	1.96
0.146157	1.96
0.203903	1.96
0.252489	1.96
0.292712	1.96
0.325368	1.96
0.351254	1.96
0.371167	1.96
0.385902	1.96
0.396256	1.96
0.403027	1.96
0.407009	1.96
0.409	1.96
0.409797	1.96
0.410195	1.96
0.410992	1.96
0.412983	1.96
0.416965	1.96
0.423736	1.96
0.43409	1.96
0.448825	1.96
0.468738	1.96
0.494624	1.96
0.52728	1.96
0.567503	1.96
0.616089	1.96
0.673835	1.96
0.741537	1.96
0.819992	1.96
0.909996	1.96
0	2
0.0784548	2
0.146157	2
0.203903	2
0.252489	2
0.292712	2
0.325368	2
0.351254	2
0.371167	2
0.385902	2
0.396256	2
0.403027	2
0.407009	2
0.409	2
0.409797	2
0.410195	2
0.410992	2
0.412983	2
0.416965	2
0.423736	2
0.43409	2
0.448825	2
0.468738	2
0.494624	2
0.52728	2
0.567503	2
0.616089	2
0.673835	2
0.741537	2
0.819992	2
0.909996	2
