VARIABLES = X Y
ZONE I = 31, J = 51, F = POINT
0	0
0.0333333	0.179505
0.0666667	0.249444
0.1	0.3
0.133333	0.339935
0.166667	0.372678
0.2	0.4
0.233333	0.422953
0.266667	0.442217
0.3	0.458258
0.333333	0.471405
0.366667	0.481894
0.4	0.489898
0.433333	0.495536
0.466667	0.498888
0.5	0.5
0.533333	0.498888
0.566667	0.495536
0.6	0.489898
0.633333	0.481894
0.666667	0.471405
0.7	0.458258
0.733333	0.442217
0.766667	0.422953
0.8	0.4
0.833333	0.372678
0.866667	0.339935
0.9	0.3
0.933333	0.249444
0.966667	0.179505
1	0
0	0.06
0.0333333	0.235915
0.0666667	0.304455
0.1	0.354
0.133333	0.393136
0.166667	0.425224
0.2	0.452
0.233333	0.474494
0.266667	0.493372
0.3	0.509092
0.333333	0.521976
0.366667	0.532257
0.4	0.5401
0.433333	0.545625
0.466667	0.54891
0.5	0.55
0.533333	0.54891
0.566667	0.545625
0.6	0.5401
0.633333	0.532257
0.666667	0.521976
0.7	0.509092
0.733333	0.493372
0.766667	0.474494
0.8	0.452
0.833333	0.425224
0.866667	0.393136
0.9	0.354
0.933333	0.304455
0.966667	0.235915
1	0.06
0	0.12
0.0333333	0.292325
0.0666667	0.359466
0.1	0.408
0.133333	0.446337
0.166667	0.477771
0.2	0.504
0.233333	0.526034
0.266667	0.544528
0.3	0.559927
0.333333	0.572548
0.366667	0.582619
0.4	0.590302
0.433333	0.595714
0.466667	0.598932
0.5	0.6
0.533333	0.598932
0.566667	0.595714
0.6	0.590302
0.633333	0.582619
0.666667	0.572548
0.7	0.559927
0.733333	0.544528
0.766667	0.526034
0.8	0.504
0.833333	0.477771
0.866667	0.446337
0.9	0.408
0.933333	0.359466
0.966667	0.292325
1	0.12
0	0.18
0.0333333	0.348735
0.0666667	0.414477
0.1	0.462
0.133333	0.499539
0.166667	0.530317
0.2	0.556
0.233333	0.577575
0.266667	0.595684
0.3	0.610762
0.333333	0.62312
0.366667	0.632981
0.4	0.640504
0.433333	0.645803
0.466667	0.648954
0.5	0.65
0.533333	0.648954
0.566667	0.645803
0.6	0.640504
0.633333	0.632981
0.666667	0.62312
0.7	0.610762
0.733333	0.595684
0.766667	0.577575
0.8	0.556
0.833333	0.530317
0.866667	0.499539
0.9	0.462
0.933333	0.414477
0.966667	0.348735
1	0.18
0	0.24
0.0333333	0.405145
0.0666667	0.469488
0.1	0.516
0.133333	0.55274
0.166667	0.582864
0.2	0.608
0.233333	0.629116
0.266667	0.646839
0.3	0.661597
0.333333	0.673692
0.366667	0.683343
0.4	0.690706
0.433333	0.695893
0.466667	0.698977
0.5	0.7
0.533333	0.698977
0.566667	0.695893
0.6	0.690706
0.633333	0.683343
0.666667	0.673692
0.7	0.661597
0.733333	0.646839
0.766667	0.629116
0.8	0.608
0.833333	0.582864
0.866667	0.55274
0.9	0.516
0.933333	0.469488
0.966667	0.405145
1	0.24
0	0.3
0.0333333	0.461555
0.0666667	0.524499
0.1	0.57
0.133333	0.605941
0.166667	0.63541
0.2	0.66
0.233333	0.680657
0.266667	0.697995
0.3	0.712432
0.333333	0.724264
0.366667	0.733705
0.4	0.740908
0.433333	0.745982
0.466667	0.748999
0.5	0.75
0.533333	0.748999
0.566667	0.745982
0.6	0.740908
0.633333	0.733705
0.666667	0.724264
0.7	0.712432
0.733333	0.697995
0.766667	0.680657
0.8	0.66
0.833333	0.63541
0.866667	0.605941
0.9	0.57
0.933333	0.524499
0.966667	0.461555
1	0.3
0	0.36
0.0333333	0.517965
0.0666667	0.579511
0.1	0.624
0.133333	0.659142
0.166667	0.687957
0.2	0.712
0.233333	0.732198
0.266667	0.749151
0.3	0.763267
0.333333	0.774836
0.366667	0.784067
0.4	0.79111
0.433333	0.796071
0.466667	0.799021
0.5	0.8
0.533333	0.799021
0.566667	0.796071
0.6	0.79111
0.633333	0.784067
0.666667	0.774836
0.7	0.763267
0.733333	0.749151
0.766667	0.732198
0.8	0.712
0.833333	0.687957
0.866667	0.659142
0.9	0.624
0.933333	0.579511
0.966667	0.517965
1	0.36
0	0.42
0.0333333	0.574375
0.0666667	0.634522
0.1	0.678
0.133333	0.712344
0.166667	0.740503
0.2	0.764
0.233333	0.783739
0.266667	0.800306
0.3	0.814102
0.333333	0.825408
0.366667	0.834429
0.4	0.841312
0.433333	0.846161
0.466667	0.849043
0.5	0.85
0.533333	0.849043
0.566667	0.846161
0.6	0.841312
0.633333	0.834429
0.666667	0.825408
0.7	0.814102
0.733333	0.800306
0.766667	0.783739
0.8	0.764
0.833333	0.740503
0.866667	0.712344
0.9	0.678
0.933333	0.634522
0.966667	0.574375
1	0.42
0	0.48
0.0333333	0.630785
0.0666667	0.689533
0.1	0.732
0.133333	0.765545
0.166667	0.79305
0.2	0.816
0.233333	0.83528
0.266667	0.851462
0.3	0.864936
0.333333	0.87598
0.366667	0.884791
0.4	0.891514
0.433333	0.89625
0.466667	0.899066
0.5	0.9
0.533333	0.899066
0.566667	0.89625
0.6	0.891514
0.633333	0.884791
0.666667	0.87598
0.7	0.864936
0.733333	0.851462
0.766667	0.83528
0.8	0.816
0.833333	0.79305
0.866667	0.765545
0.9	0.732
0.933333	0.689533
0.966667	0.630785
1	0.48
0	0.54
0.0333333	0.687195
0.0666667	0.744544
0.1	0.786
0.133333	0.818746
0.166667	0.845596
0.2	0.868
0.233333	0.886821
0.266667	0.902618
0.3	0.915771
0.333333	0.926552
0.366667	0.935153
0.4	0.941716
0.433333	0.946339
0.466667	0.949088
0.5	0.95
0.533333	0.949088
0.566667	0.946339
0.6	0.941716
0.633333	0.935153
0.666667	0.926552
0.7	0.915771
0.733333	0.902618
0.766667	0.886821
0.8	0.868
0.833333	0.845596
0.866667	0.818746
0.9	0.786
0.933333	0.744544
0.966667	0.687195
1	0.54
0	0.6
0.0333333	0.743604
0.0666667	0.799555
0.1	0.84
0.133333	0.871948
0.166667	0.898142
0.2	0.92
0.233333	0.938362
0.266667	0.953773
0.3	0.966606
0.333333	0.977124
0.366667	0.985516
0.4	0.991918
0.433333	0.996428
0.466667	0.99911
0.5	1
0.533333	0.99911
0.566667	0.996428
0.6	0.991918
0.633333	0.985516
0.666667	0.977124
0.7	0.966606
0.733333	0.953773
0.766667	0.938362
0.8	0.92
0.833333	0.898142
0.866667	0.871948
0.9	0.84
0.933333	0.799555
0.966667	0.743604
1	0.6
0	0.66
0.0333333	0.800014
0.0666667	0.854566
0.1	0.894
0.133333	0.925149
0.166667	0.950689
0.2	0.972
0.233333	0.989903
0.266667	1.00493
0.3	1.01744
0.333333	1.0277
0.366667	1.03588
0.4	1.04212
0.433333	1.04652
0.466667	1.04913
0.5	1.05
0.533333	1.04913
0.566667	1.04652
0.6	1.04212
0.633333	1.03588
0.666667	1.0277
0.7	1.01744
0.733333	1.00493
0.766667	0.989903
0.8	0.972
0.833333	0.950689
0.866667	0.925149
0.9	0.894
0.933333	0.854566
0.966667	0.800014
1	0.66
0	0.72
0.0333333	0.856424
0.0666667	0.909577
0.1	0.948
0.133333	0.97835
0.166667	1.00324
0.2	1.024
0.233333	1.04144
0.266667	1.05608
0.3	1.06828
0.333333	1.07827
0.366667	1.08624
0.4	1.09232
0.433333	1.09661
0.466667	1.09915
0.5	1.1
0.533333	1.09915
0.566667	1.09661
0.6	1.09232
0.633333	1.08624
0.666667	1.07827
0.7	1.06828
0.733333	1.05608
0.766667	1.04144
0.8	1.024
0.833333	1.00324
0.866667	0.97835
0.9	0.948
0.933333	0.909577
0.966667	0.856424
1	0.72
0	0.78
0.0333333	0.912834
0.0666667	0.964588
0.1	1.002
0.133333	1.03155
0.166667	1.05578
0.2	1.076
0.233333	1.09298
0.266667	1.10724
0.3	1.11911
0.333333	1.12884
0.366667	1.1366
0.4	1.14252
0.433333	1.1467
0.466667	1.14918
0.5	1.15
0.533333	1.14918
0.566667	1.1467
0.6	1.14252
0.633333	1.1366
0.666667	1.12884
0.7	1.11911
0.733333	1.10724
0.766667	1.09298
0.8	1.076
0.833333	1.05578
0.866667	1.03155
0.9	1.002
0.933333	0.964588
0.966667	0.912834
1	0.78
0	0.84
0.0333333	0.969244
0.0666667	1.0196
0.1	1.056
0.133333	1.08475
0.166667	1.10833
0.2	1.128
0.233333	1.14453
0.266667	1.1584
0.3	1.16995
0.333333	1.17941
0.366667	1.18696
0.4	1.19273
0.433333	1.19679
0.466667	1.1992
0.5	1.2
0.533333	1.1992
0.566667	1.19679
0.6	1.19273
0.633333	1.18696
0.666667	1.17941
0.7	1.16995
0.733333	1.1584
0.766667	1.14453
0.8	1.128
0.833333	1.10833
0.866667	1.08475
0.9	1.056
0.933333	1.0196
0.966667	0.969244
1	0.84
0	0.9
0.0333333	1.02565
0.0666667	1.07461
0.1	1.11
0.133333	1.13795
0.166667	1.16087
0.2	1.18
0.233333	1.19607
0.266667	1.20955
0.3	1.22078
0.333333	1.22998
0.366667	1.23733
0.4	1.24293
0.433333	1.24687
0.466667	1.24922
0.5	1.25
0.533333	1.24922
0.566667	1.24687
0.6	1.24293
0.633333	1.23733
0.666667	1.22998
0.7	1.22078
0.733333	1.20955
0.766667	1.19607
0.8	1.18
0.833333	1.16087
0.866667	1.13795
0.9	1.11
0.933333	1.07461
0.966667	1.02565
1	0.9
0	0.96
0.0333333	1.08206
0.0666667	1.12962
0.1	1.164
0.133333	1.19116
0.166667	1.21342
0.2	1.232
0.233333	1.24761
0.266667	1.26071
0.3	1.27162
0.333333	1.28056
0.366667	1.28769
0.4	1.29313
0.433333	1.29696
0.466667	1.29924
0.5	1.3
0.533333	1.29924
0.566667	1.29696
0.6	1.29313
0.633333	1.28769
0.666667	1.28056
0.7	1.27162
0.733333	1.26071
0.766667	1.24761
0.8	1.232
0.833333	1.21342
0.866667	1.19116
0.9	1.164
0.933333	1.12962
0.966667	1.08206
1	0.96
0	1.02
0.0333333	1.13847
0.0666667	1.18463
0.1	1.218
0.133333	1.24436
0.166667	1.26597
0.2	1.284
0.233333	1.29915
0.266667	1.31186
0.3	1.32245
0.333333	1.33113
0.366667	1.33805
0.4	1.34333
0.433333	1.34705
0.466667	1.34927
0.5	1.35
0.533333	1.34927
0.566667	1.34705
0.6	1.34333
0.633333	1.33805
0.666667	1.33113
0.7	1.32245
0.733333	1.31186
0.766667	1.29915
0.8	1.284
0.833333	1.26597
0.866667	1.24436
0.9	1.218
0.933333	1.18463
0.966667	1.13847
1	1.02
0	1.08
0.0333333	1.19488
0.0666667	1.23964
0.1	1.272
0.133333	1.29756
0.166667	1.31851
0.2	1.336
0.233333	1.35069
0.266667	1.36302
0.3	1.37328
0.333333	1.3817
0.366667	1.38841
0.4	1.39353
0.433333	1.39714
0.466667	1.39929
0.5	1.4
0.533333	1.39929
0.566667	1.39714
0.6	1.39353
0.633333	1.38841
0.666667	1.3817
0.7	1.37328
0.733333	1.36302
0.766667	1.35069
0.8	1.336
0.833333	1.31851
0.866667	1.29756
0.9	1.272
0.933333	1.23964
0.966667	1.19488
1	1.08
0	1.14
0.0333333	1.25129
0.0666667	1.29466
0.1	1.326
0.133333	1.35076
0.166667	1.37106
0.2	1.388
0.233333	1.40223
0.266667	1.41417
0.3	1.42412
0.333333	1.43227
0.366667	1.43877
0.4	1.44374
0.433333	1.44723
0.466667	1.44931
0.5	1.45
0.533333	1.44931
0.566667	1.44723
0.6	1.44374
0.633333	1.43877
0.666667	1.43227
0.7	1.42412
0.733333	1.41417
0.766667	1.40223
0.8	1.388
0.833333	1.37106
0.866667	1.35076
0.9	1.326
0.933333	1.29466
0.966667	1.25129
1	1.14
0	1.2
0.0333333	1.3077
0.0666667	1.34967
0.1	1.38
0.133333	1.40396
0.166667	1.42361
0.2	1.44
0.233333	1.45377
0.266667	1.46533
0.3	1.47495
0.333333	1.48284
0.366667	1.48914
0.4	1.49394
0.433333	1.49732
0.466667	1.49933
0.5	1.5
0.533333	1.49933
0.566667	1.49732
0.6	1.49394
0.633333	1.48914
0.666667	1.48284
0.7	1.47495
0.733333	1.46533
0.766667	1.45377
0.8	1.44
0.833333	1.42361
0.866667	1.40396
0.9	1.38
0.933333	1.34967
0.966667	1.3077
1	1.2
0	1.26
0.0333333	1.36411
0.0666667	1.40468
0.1	1.434
0.133333	1.45716
0.166667	1.47615
0.2	1.492
0.233333	1.50531
0.266667	1.51649
0.3	1.52579
0.333333	1.53341
0.366667	1.5395
0.4	1.54414
0.433333	1.54741
0.466667	1.54935
0.5	1.55
0.533333	1.54935
0.566667	1.54741
0.6	1.54414
0.633333	1.5395
0.666667	1.53341
0.7	1.52579
0.733333	1.51649
0.766667	1.50531
0.8	1.492
0.833333	1.47615
0.866667	1.45716
0.9	1.434
0.933333	1.40468
0.966667	1.36411
1	1.26
0	1.32
0.0333333	1.42052
0.0666667	1.45969
0.1	1.488
0.133333	1.51036
0.166667	1.5287
0.2	1.544
0.233333	1.55685
0.266667	1.56764
0.3	1.57662
0.333333	1.58399
0.366667	1.58986
0.4	1.59434
0.433333	1.5975
0.466667	1.59938
0.5	1.6
0.533333	1.59938
0.566667	1.5975
0.6	1.59434
0.633333	1.58986
0.666667	1.58399
0.7	1.57662
0.733333	1.56764
0.766667	1.55685
0.8	1.544
0.833333	1.5287
0.866667	1.51036
0.9	1.488
0.933333	1.45969
0.966667	1.42052
1	1.32
0	1.38
0.0333333	1.47693
0.0666667	1.5147
0.1	1.542
0.133333	1.56356
0.166667	1.58125
0.2	1.596
0.233333	1.60839
0.266667	1.6188
0.3	1.62746
0.333333	1.63456
0.366667	1.64022
0.4	1.64454
0.433333	1.64759
0.466667	1.6494
0.5	1.65
0.533333	1.6494
0.566667	1.64759
0.6	1.64454
0.633333	1.64022
0.666667	1.63456
0.7	1.62746
0.733333	1.6188
0.766667	1.60839
0.8	1.596
0.833333	1.58125
0.866667	1.56356
0.9	1.542
0.933333	1.5147
0.966667	1.47693
1	1.38
0	1.44
0.0333333	1.53334
0.0666667	1.56971
0.1	1.596
0.133333	1.61677
0.166667	1.63379
0.2	1.648
0.233333	1.65994
0.266667	1.66995
0.3	1.67829
0.333333	1.68513
0.366667	1.69059
0.4	1.69475
0.433333	1.69768
0.466667	1.69942
0.5	1.7
0.533333	1.69942
0.566667	1.69768
0.6	1.69475
0.633333	1.69059
0.666667	1.68513
0.7	1.67829
0.733333	1.66995
0.766667	1.65994
0.8	1.648
0.833333	1.63379
0.866667	1.61677
0.9	1.596
0.933333	1.56971
0.966667	1.53334
1	1.44
0	1.5
0.0333333	1.58975
0.0666667	1.62472
0.1	1.65
0.133333	1.66997
0.166667	1.68634
0.2	1.7
0.233333	1.71148
0.266667	1.72111
0.3	1.72913
0.333333	1.7357
0.366667	1.74095
0.4	1.74495
0.433333	1.74777
0.466667	1.74944
0.5	1.75
0.533333	1.74944
0.566667	1.74777
0.6	1.74495
0.633333	1.74095
0.666667	1.7357
0.7	1.72913
0.733333	1.72111
0.766667	1.71148
0.8	1.7
0.833333	1.68634
0.866667	1.66997
0.9	1.65
0.933333	1.62472
0.966667	1.58975
1	1.5
0	1.56
0.0333333	1.64616
0.0666667	1.67973
0.1	1.704
0.133333	1.72317
0.166667	1.73889
0.2	1.752
0.233333	1.76302
0.266667	1.77226
0.3	1.77996
0.333333	1.78627
0.366667	1.79131
0.4	1.79515
0.433333	1.79786
0.466667	1.79947
0.5	1.8
0.533333	1.79947
0.566667	1.79786
0.6	1.79515
0.633333	1.79131
0.666667	1.78627
0.7	1.77996
0.733333	1.77226
0.766667	1.76302
0.8	1.752
0.833333	1.73889
0.866667	1.72317
0.9	1.704
0.933333	1.67973
0.966667	1.64616
1	1.56
0	1.62
0.0333333	1.70257
0.0666667	1.73474
0.1	1.758
0.133333	1.77637
0.166667	1.79143
0.2	1.804
0.233333	1.81456
0.266667	1.82342
0.3	1.8308
0.333333	1.83685
0.366667	1.84167
0.4	1.84535
0.433333	1.84795
0.466667	1.84949
0.5	1.85
0.533333	1.84949
0.566667	1.84795
0.6	1.84535
0.633333	1.84167
0.666667	1.83685
0.7	1.8308
0.733333	1.82342
0.766667	1.81456
0.8	1.804
0.833333	1.79143
0.866667	1.77637
0.9	1.758
0.933333	1.73474
0.966667	1.70257
1	1.62
0	1.68
0.0333333	1.75898
0.0666667	1.78976
0.1	1.812
0.133333	1.82957
0.166667	1.84398
0.2	1.856
0.233333	1.8661
0.266667	1.87458
0.3	1.88163
0.333333	1.88742
0.366667	1.89203
0.4	1.89556
0.433333	1.89804
0.466667	1.89951
0.5	1.9
0.533333	1.89951
0.566667	1.89804
0.6	1.89556
0.633333	1.89203
0.666667	1.88742
0.7	1.88163
0.733333	1.87458
0.766667	1.8661
0.8	1.856
0.833333	1.84398
0.866667	1.82957
0.9	1.812
0.933333	1.78976
0.966667	1.75898
1	1.68
0	1.74
0.0333333	1.81539
0.0666667	1.84477
0.1	1.866
0.133333	1.88277
0.166667	1.89652
0.2	1.908
0.233333	1.91764
0.266667	1.92573
0.3	1.93247
0.333333	1.93799
0.366667	1.9424
0.4	1.94576
0.433333	1.94812
0.466667	1.94953
0.5	1.95
0.533333	1.94953
0.566667	1.94812
0.6	1.94576
0.633333	1.9424
0.666667	1.93799
0.7	1.93247
0.733333	1.92573
0.766667	1.91764
0.8	1.908
0.833333	1.89652
0.866667	1.88277
0.9	1.866
0.933333	1.84477
0.966667	1.81539
1	1.74
0	1.8
0.0333333	1.8718
0.0666667	1.89978
0.1	1.92
0.133333	1.93597
0.166667	1.94907
0.2	1.96
0.233333	1.96918
0.266667	1.97689
0.3	1.9833
0.333333	1.98856
0.366667	1.99276
0.4	1.99596
0.433333	1.99821
0.466667	1.99956
0.5	2
0.533333	1.99956
0.566667	1.99821
0.6	1.99596
0.633333	1.99276
0.666667	1.98856
0.7	1.9833
0.733333	1.97689
0.766667	1.96918
0.8	1.96
0.833333	1.94907
0.866667	1.93597
0.9	1.92
0.933333	1.89978
0.966667	1.8718
1	1.8
0	1.86
0.0333333	1.92821
0.0666667	1.95479
0.1	1.974
0.133333	1.98918
0.166667	2.00162
0.2	2.012
0.233333	2.02072
0.266667	2.02804
0.3	2.03414
0.333333	2.03913
0.366667	2.04312
0.4	2.04616
0.433333	2.0483
0.466667	2.04958
0.5	2.05
0.533333	2.04958
0.566667	2.0483
0.6	2.04616
0.633333	2.04312
0.666667	2.03913
0.7	2.03414
0.733333	2.02804
0.766667	2.02072
0.8	2.012
0.833333	2.00162
0.866667	1.98918
0.9	1.974
0.933333	1.95479
0.966667	1.92821
1	1.86
0	1.92
0.0333333	1.98462
0.0666667	2.0098
0.1	2.028
0.133333	2.04238
0.166667	2.05416
0.2	2.064
0.233333	2.07226
0.266667	2.0792
0.3	2.08497
0.333333	2.08971
0.366667	2.09348
0.4	2.09636
0.433333	2.09839
0.466667	2.0996
0.5	2.1
0.533333	2.0996
0.566667	2.09839
0.6	2.09636
0.633333	2.09348
0.666667	2.08971
0.7	2.08497
0.733333	2.0792
0.766667	2.07226
0.8	2.064
0.833333	2.05416
0.866667	2.04238
0.9	2.028
0.933333	2.0098
0.966667	1.98462
1	1.92
0	1.98
0.0333333	2.04103
0.0666667	2.06481
0.1	2.082
0.133333	2.09558
0.166667	2.10671
0.2	2.116
0.233333	2.1238
0.266667	2.13035
0.3	2.13581
0.333333	2.14028
0.366667	2.14384
0.4	2.14657
0.433333	2.14848
0.466667	2.14962
0.5	2.15
0.533333	2.14962
0.566667	2.14848
0.6	2.14657
0.633333	2.14384
0.666667	2.14028
0.7	2.13581
0.733333	2.13035
0.766667	2.1238
0.8	2.116
0.833333	2.10671
0.866667	2.09558
0.9	2.082
0.933333	2.06481
0.966667	2.04103
1	1.98
0	2.04
0.0333333	2.09744
0.0666667	2.11982
0.1	2.136
0.133333	2.14878
0.166667	2.15926
0.2	2.168
0.233333	2.17534
0.266667	2.18151
0.3	2.18664
0.333333	2.19085
0.366667	2.19421
0.4	2.19677
0.433333	2.19857
0.466667	2.19964
0.5	2.2
0.533333	2.19964
0.566667	2.19857
0.6	2.19677
0.633333	2.19421
0.666667	2.19085
0.7	2.18664
0.733333	2.18151
0.766667	2.17534
0.8	2.168
0.833333	2.15926
0.866667	2.14878
0.9	2.136
0.933333	2.11982
0.966667	2.09744
1	2.04
0	2.1
0.0333333	2.15385
0.0666667	2.17483
0.1	2.19
0.133333	2.20198
0.166667	2.2118
0.2	2.22
0.233333	2.22689
0.266667	2.23266
0.3	2.23748
0.333333	2.24142
0.366667	2.24457
0.4	2.24697
0.433333	2.24866
0.466667	2.24967
0.5	2.25
0.533333	2.24967
0.566667	2.24866
0.6	2.24697
0.633333	2.24457
0.666667	2.24142
0.7	2.23748
0.733333	2.23266
0.766667	2.22689
0.8	2.22
0.833333	2.2118
0.866667	2.20198
0.9	2.19
0.933333	2.17483
0.966667	2.15385
1	2.1
0	2.16
0.0333333	2.21026
0.0666667	2.22984
0.1	2.244
0.133333	2.25518
0.166667	2.26435
0.2	2.272
0.233333	2.27843
0.266667	2.28382
0.3	2.28831
0.333333	2.29199
0.366667	2.29493
0.4	2.29717
0.433333	2.29875
0.466667	2.29969
0.5	2.3
0.533333	2.29969
0.566667	2.29875
0.6	2.29717
0.633333	2.29493
0.666667	2.29199
0.7	2.28831
0.733333	2.28382
0.766667	2.27843
0.8	2.272
0.833333	2.26435
0.866667	2.25518
0.9	2.244
0.933333	2.22984
0.966667	2.21026
1	2.16
0	2.22
0.0333333	2.26667
0.0666667	2.28486
0.1	2.298
0.133333	2.30838
0.166667	2.3169
0.2	2.324
0.233333	2.32997
0.266667	2.33498
0.3	2.33915
0.333333	2.34257
0.366667	2.34529
0.4	2.34737
0.433333	2.34884
0.466667	2.34971
0.5	2.35
0.533333	2.34971
0.566667	2.34884
0.6	2.34737
0.633333	2.34529
0.666667	2.34257
0.7	2.33915
0.733333	2.33498
0.766667	2.32997
0.8	2.324
0.833333	2.3169
0.866667	2.30838
0.9	2.298
0.933333	2.28486
0.966667	2.26667
1	2.22
0	2.28
0.0333333	2.32308
0.0666667	2.33987
0.1	2.352
0.133333	2.36158
0.166667	2.36944
0.2	2.376
0.233333	2.38151
0.266667	2.38613
0.3	2.38998
0.333333	2.39314
0.366667	2.39565
0.4	2.39758
0.433333	2.39893
0.466667	2.39973
0.5	2.4
0.533333	2.39973
0.566667	2.39893
0.6	2.39758
0.633333	2.39565
0.666667	2.39314
0.7	2.38998
0.733333	2.38613
0.766667	2.38151
0.8	2.376
0.833333	2.36944
0.866667	2.36158
0.9	2.352
0.933333	2.33987
0.966667	2.32308
1	2.28
0	2.34
0.0333333	2.37949
0.0666667	2.39488
0.1	2.406
0.133333	2.41479
0.166667	2.42199
0.2	2.428
0.233333	2.43305
0.266667	2.43729
0.3	2.44082
0.333333	2.44371
0.366667	2.44602
0.4	2.44778
0.433333	2.44902
0.466667	2.44976
0.5	2.45
0.533333	2.44976
0.566667	2.44902
0.6	2.44778
0.633333	2.44602
0.666667	2.44371
0.7	2.44082
0.733333	2.43729
0.766667	2.43305
0.8	2.428
0.833333	2.42199
0.866667	2.41479
0.9	2.406
0.933333	2.39488
0.966667	2.37949
1	2.34
0	2.4
0.0333333	2.4359
0.0666667	2.44989
0.1	2.46
0.133333	2.46799
0.166667	2.47454
0.2	2.48
0.233333	2.48459
0.266667	2.48844
0.3	2.49165
0.333333	2.49428
0.366667	2.49638
0.4	2.49798
0.433333	2.49911
0.466667	2.49978
0.5	2.5
0.533333	2.49978
0.566667	2.49911
0.6	2.49798
0.633333	2.49638
0.666667	2.49428
0.7	2.49165
0.733333	2.48844
0.766667	2.48459
0.8	2.48
0.833333	2.47454
0.866667	2.46799
0.9	2.46
0.933333	2.44989
0.966667	2.4359
1	2.4
0	2.46
0.0333333	2.49231
0.0666667	2.5049
0.1	2.514
0.133333	2.52119
0.166667	2.52708
0.2	2.532
0.233333	2.53613
0.266667	2.5396
0.3	2.54249
0.333333	2.54485
0.366667	2.54674
0.4	2.54818
0.433333	2.5492
0.466667	2.5498
0.5	2.55
0.533333	2.5498
0.566667	2.5492
0.6	2.54818
0.633333	2.54674
0.666667	2.54485
0.7	2.54249
0.733333	2.5396
0.766667	2.53613
0.8	2.532
0.833333	2.52708
0.866667	2.52119
0.9	2.514
0.933333	2.5049
0.966667	2.49231
1	2.46
0	2.52
0.0333333	2.54872
0.0666667	2.55991
0.1	2.568
0.133333	2.57439
0.166667	2.57963
0.2	2.584
0.233333	2.58767
0.266667	2.59075
0.3	2.59332
0.333333	2.59542
0.366667	2.5971
0.4	2.59838
0.433333	2.59929
0.466667	2.59982
0.5	2.6
0.533333	2.59982
0.566667	2.59929
0.6	2.59838
0.633333	2.5971
0.666667	2.59542
0.7	2.59332
0.733333	2.59075
0.766667	2.58767
0.8	2.584
0.833333	2.57963
0.866667	2.57439
0.9	2.568
0.933333	2.55991
0.966667	2.54872
1	2.52
0	2.58
0.0333333	2.60513
0.0666667	2.61492
0.1	2.622
0.133333	2.62759
0.166667	2.63217
0.2	2.636
0.233333	2.63921
0.266667	2.64191
0.3	2.64416
0.333333	2.646
0.366667	2.64747
0.4	2.64859
0.433333	2.64937
0.466667	2.64984
0.5	2.65
0.533333	2.64984
0.566667	2.64937
0.6	2.64859
0.633333	2.64747
0.666667	2.646
0.7	2.64416
0.733333	2.64191
0.766667	2.63921
0.8	2.636
0.833333	2.63217
0.866667	2.62759
0.9	2.622
0.933333	2.61492
0.966667	2.60513
1	2.58
0	2.64
0.0333333	2.66154
0.0666667	2.66993
0.1	2.676
0.133333	2.68079
0.166667	2.68472
0.2	2.688
0.233333	2.69075
0.266667	2.69307
0.3	2.69499
0.333333	2.69657
0.366667	2.69783
0.4	2.69879
0.433333	2.69946
0.466667	2.69987
0.5	2.7
0.533333	2.69987
0.566667	2.69946
0.6	2.69879
0.633333	2.69783
0.666667	2.69657
0.7	2.69499
0.733333	2.69307
0.766667	2.69075
0.8	2.688
0.833333	2.68472
0.866667	2.68079
0.9	2.676
0.933333	2.66993
0.966667	2.66154
1	2.64
0	2.7
0.0333333	2.71795
0.0666667	2.72494
0.1	2.73
0.133333	2.73399
0.166667	2.73727
0.2	2.74
0.233333	2.7423
0.266667	2.74422
0.3	2.74583
0.333333	2.74714
0.366667	2.74819
0.4	2.74899
0.433333	2.74955
0.466667	2.74989
0.5	2.75
0.533333	2.74989
0.566667	2.74955
0.6	2.74899
0.633333	2.74819
0.666667	2.74714
0.7	2.74583
0.733333	2.74422
0.766667	2.7423
0.8	2.74
0.833333	2.73727
0.866667	2.73399
0.9	2.73
0.933333	2.72494
0.966667	2.71795
1	2.7
0	2.76
0.0333333	2.77436
0.0666667	2.77996
0.1	2.784
0.133333	2.78719
0.166667	2.78981
0.2	2.792
0.233333	2.79384
0.266667	2.79538
0.3	2.79666
0.333333	2.79771
0.366667	2.79855
0.4	2.79919
0.433333	2.79964
0.466667	2.79991
0.5	2.8
0.533333	2.79991
0.566667	2.79964
0.6	2.79919
0.633333	2.79855
0.666667	2.79771
0.7	2.79666
0.733333	2.79538
0.766667	2.79384
0.8	2.792
0.833333	2.78981
0.866667	2.78719
0.9	2.784
0.933333	2.77996
0.966667	2.77436
1	2.76
0	2.82
0.0333333	2.83077
0.0666667	2.83497
0.1	2.838
0.133333	2.8404
0.166667	2.84236
0.2	2.844
0.233333	2.84538
0.266667	2.84653
0.3	2.8475
0.333333	2.84828
0.366667	2.84891
0.4	2.84939
0.433333	2.84973
0.466667	2.84993
0.5	2.85
0.533333	2.84993
0.566667	2.84973
0.6	2.84939
0.633333	2.84891
0.666667	2.84828
0.7	2.8475
0.733333	2.84653
0.766667	2.84538
0.8	2.844
0.833333	2.84236
0.866667	2.8404
0.9	2.838
0.933333	2.83497
0.966667	2.83077
1	2.82
0	2.88
0.0333333	2.88718
0.0666667	2.88998
0.1	2.892
0.133333	2.8936
0.166667	2.89491
0.2	2.896
0.233333	2.89692
0.266667	2.89769
0.3	2.89833
0.333333	2.89886
0.366667	2.89928
0.4	2.8996
0.433333	2.89982
0.466667	2.89996
0.5	2.9
0.533333	2.89996
0.566667	2.89982
0.6	2.8996
0.633333	2.89928
0.666667	2.89886
0.7	2.89833
0.733333	2.89769
0.766667	2.89692
0.8	2.896
0.833333	2.89491
0.866667	2.8936
0.9	2.892
0.933333	2.88998
0.966667	2.88718
1	2.88
0	2.94
0.0333333	2.94359
0.0666667	2.94499
0.1	2.946
0.133333	2.9468
0.166667	2.94745
0.2	2.948
0.233333	2.94846
0.266667	2.94884
0.3	2.94917
0.333333	2.94943
0.366667	2.94964
0.4	2.9498
0.433333	2.94991
0.466667	2.94998
0.5	2.95
0.533333	2.94998
0.566667	2.94991
0.6	2.9498
0.633333	2.94964
0.666667	2.94943
0.7	2.94917
0.733333	2.94884
0.766667	2.94846
0.8	2.948
0.833333	2.94745
0.866667	2.9468
0.9	2.946
0.933333	2.94499
0.966667	2.94359
1	2.94
0	3
0.0333333	3
0.0666667	3
0.1	3
0.133333	3
0.166667	3
0.2	3
0.233333	3
0.266667	3
0.3	3
0.333333	3
0.366667	3
0.4	3
0.433333	3
0.466667	3
0.5	3
0.533333	3
0.566667	3
0.6	3
0.633333	3
0.666667	3
0.7	3
0.733333	3
0.766667	3
0.8	3
0.833333	3
0.866667	3
0.9	3
0.933333	3
0.966667	3
1	3
