VARIABLES = X Y
ZONE I = 121, J = 41, F = POINT
0	0
0.0166667	0
0.0333333	0
0.05	0
0.0666667	0
0.0833333	0
0.1	0
0.116667	0
0.133333	0
0.15	0
0.166667	0
0.183333	0
0.2	0
0.216667	0
0.233333	0
0.25	0
0.266667	0
0.283333	0
0.3	0
0.316667	0
0.333333	0
0.35	0
0.366667	0
0.383333	0
0.4	0
0.416667	0
0.433333	0
0.45	0
0.466667	0
0.483333	0
0.5	0
0.516667	0.0288675
0.533333	0.057735
0.55	0.0866025
0.566667	0.11547
0.583333	0.144338
0.6	0.173205
0.616667	0.202073
0.633333	0.23094
0.65	0.259808
0.666667	0.288675
0.683333	0.317543
0.7	0.34641
0.716667	0.375278
0.733333	0.404145
0.75	0.433013
0.766667	0.46188
0.783333	0.490748
0.8	0.519615
0.816667	0.548483
0.833333	0.57735
0.85	0.606218
0.866667	0.635085
0.883333	0.663953
0.9	0.69282
0.916667	0.721688
0.933333	0.750555
0.95	0.779423
0.966667	0.80829
0.983333	0.837158
1	0.866025
0	0
0	0
0	0
0	0
0	0
0	0
0	0
0	0
0	0
0	0
0	0
0	0
0	0
0	0
0	0
0	0
0	0
0	0
0	0
0	0
0	0
0	0
0	0
0	0
0	0
0	0
0	0
0	0
0	0
0.788675	0.5
1.30534	0
1.32201	0
1.33868	0
1.35534	0
1.37201	0
1.38868	0
1.40534	0
1.42201	0
1.43868	0
1.45534	0
1.47201	0
1.48868	0
1.50534	0
1.52201	0
1.53868	0
1.55534	0
1.57201	0
1.58868	0
1.60534	0
1.62201	0
1.63868	0
1.65534	0
1.67201	0
1.68868	0
1.70534	0
1.72201	0
1.73868	0
1.75534	0
1.77201	0
1.78868	0
0	0.025
0.0166667	0.025
0.0333333	0.025
0.05	0.025
0.0666667	0.025
0.0833333	0.025
0.1	0.025
0.116667	0.025
0.133333	0.025
0.15	0.025
0.166667	0.025
0.183333	0.025
0.2	0.025
0.216667	0.025
0.233333	0.025
0.25	0.025
0.266667	0.025
0.283333	0.025
0.3	0.025
0.316667	0.025
0.333333	0.025
0.35	0.025
0.366667	0.025
0.383333	0.025
0.4	0.025
0.416667	0.025
0.433333	0.025
0.45	0.025
0.466667	0.025
0.483333	0.025
0.5	0.025
0.516667	0.0531458
0.533333	0.0812917
0.55	0.109437
0.566667	0.137583
0.583333	0.165729
0.6	0.193875
0.616667	0.222021
0.633333	0.250167
0.65	0.278312
0.666667	0.306458
0.683333	0.334604
0.7	0.36275
0.716667	0.390896
0.733333	0.419042
0.75	0.447187
0.766667	0.475333
0.783333	0.503479
0.8	0.531625
0.816667	0.559771
0.833333	0.587917
0.85	0.616062
0.866667	0.644208
0.883333	0.672354
0.9	0.7005
0.916667	0.728646
0.933333	0.756791
0.95	0.784937
0.966667	0.813083
0.983333	0.841229
1	0.869375
0	0
0	0
0	0
0	0
0	0
0	0
0	0
0	0
0	0
0	0
0	0
0	0
0	0
0	0
0	0
0	0
0	0
0	0
0	0
0	0
0	0
0	0
0	0
0	0
0	0
0	0
0	0
0	0
0	0
0.788675	0.5125
1.30534	0.025
1.32201	0.025
1.33868	0.025
1.35534	0.025
1.37201	0.025
1.38868	0.025
1.40534	0.025
1.42201	0.025
1.43868	0.025
1.45534	0.025
1.47201	0.025
1.48868	0.025
1.50534	0.025
1.52201	0.025
1.53868	0.025
1.55534	0.025
1.57201	0.025
1.58868	0.025
1.60534	0.025
1.62201	0.025
1.63868	0.025
1.65534	0.025
1.67201	0.025
1.68868	0.025
1.70534	0.025
1.72201	0.025
1.73868	0.025
1.75534	0.025
1.77201	0.025
1.78868	0.025
0	0.05
0.0166667	0.05
0.0333333	0.05
0.05	0.05
0.0666667	0.05
0.0833333	0.05
0.1	0.05
0.116667	0.05
0.133333	0.05
0.15	0.05
0.166667	0.05
0.183333	0.05
0.2	0.05
0.216667	0.05
0.233333	0.05
0.25	0.05
0.266667	0.05
0.283333	0.05
0.3	0.05
0.316667	0.05
0.333333	0.05
0.35	0.05
0.366667	0.05
0.383333	0.05
0.4	0.05
0.416667	0.05
0.433333	0.05
0.45	0.05
0.466667	0.05
0.483333	0.05
0.5	0.05
0.516667	0.0774241
0.533333	0.104848
0.55	0.132272
0.566667	0.159697
0.583333	0.187121
0.6	0.214545
0.616667	0.241969
0.633333	0.269393
0.65	0.296817
0.666667	0.324241
0.683333	0.351666
0.7	0.37909
0.716667	0.406514
0.733333	0.433938
0.75	0.461362
0.766667	0.488786
0.783333	0.51621
0.8	0.543634
0.816667	0.571059
0.833333	0.598483
0.85	0.625907
0.866667	0.653331
0.883333	0.680755
0.9	0.708179
0.916667	0.735603
0.933333	0.763028
0.95	0.790452
0.966667	0.817876
0.983333	0.8453
1	0.872724
0	0
0	0
0	0
0	0
0	0
0	0
0	0
0	0
0	0
0	0
0	0
0	0
0	0
0	0
0	0
0	0
0	0
0	0
0	0
0	0
0	0
0	0
0	0
0	0
0	0
0	0
0	0
0	0
0	0
0.788675	0.525
1.30534	0.05
1.32201	0.05
1.33868	0.05
1.35534	0.05
1.37201	0.05
1.38868	0.05
1.40534	0.05
1.42201	0.05
1.43868	0.05
1.45534	0.05
1.47201	0.05
1.48868	0.05
1.50534	0.05
1.52201	0.05
1.53868	0.05
1.55534	0.05
1.57201	0.05
1.58868	0.05
1.60534	0.05
1.62201	0.05
1.63868	0.05
1.65534	0.05
1.67201	0.05
1.68868	0.05
1.70534	0.05
1.72201	0.05
1.73868	0.05
1.75534	0.05
1.77201	0.05
1.78868	0.05
0	0.075
0.0166667	0.075
0.0333333	0.075
0.05	0.075
0.0666667	0.075
0.0833333	0.075
0.1	0.075
0.116667	0.075
0.133333	0.075
0.15	0.075
0.166667	0.075
0.183333	0.075
0.2	0.075
0.216667	0.075
0.233333	0.075
0.25	0.075
0.266667	0.075
0.283333	0.075
0.3	0.075
0.316667	0.075
0.333333	0.075
0.35	0.075
0.366667	0.075
0.383333	0.075
0.4	0.075
0.416667	0.075
0.433333	0.075
0.45	0.075
0.466667	0.075
0.483333	0.075
0.5	0.075
0.516667	0.101702
0.533333	0.128405
0.55	0.155107
0.566667	0.18181
0.583333	0.208512
0.6	0.235215
0.616667	0.261917
0.633333	0.28862
0.65	0.315322
0.666667	0.342024
0.683333	0.368727
0.7	0.395429
0.716667	0.422132
0.733333	0.448834
0.75	0.475537
0.766667	0.502239
0.783333	0.528942
0.8	0.555644
0.816667	0.582347
0.833333	0.609049
0.85	0.635751
0.866667	0.662454
0.883333	0.689156
0.9	0.715859
0.916667	0.742561
0.933333	0.769264
0.95	0.795966
0.966667	0.822669
0.983333	0.849371
1	0.876073
0	0
0	0
0	0
0	0
0	0
0	0
0	0
0	0
0	0
0	0
0	0
0	0
0	0
0	0
0	0
0	0
0	0
0	0
0	0
0	0
0	0
0	0
0	0
0	0
0	0
0	0
0	0
0	0
0	0
0.788675	0.5375
1.30534	0.075
1.32201	0.075
1.33868	0.075
1.35534	0.075
1.37201	0.075
1.38868	0.075
1.40534	0.075
1.42201	0.075
1.43868	0.075
1.45534	0.075
1.47201	0.075
1.48868	0.075
1.50534	0.075
1.52201	0.075
1.53868	0.075
1.55534	0.075
1.57201	0.075
1.58868	0.075
1.60534	0.075
1.62201	0.075
1.63868	0.075
1.65534	0.075
1.67201	0.075
1.68868	0.075
1.70534	0.075
1.72201	0.075
1.73868	0.075
1.75534	0.075
1.77201	0.075
1.78868	0.075
0	0.1
0.0166667	0.1
0.0333333	0.1
0.05	0.1
0.0666667	0.1
0.0833333	0.1
0.1	0.1
0.116667	0.1
0.133333	0.1
0.15	0.1
0.166667	0.1
0.183333	0.1
0.2	0.1
0.216667	0.1
0.233333	0.1
0.25	0.1
0.266667	0.1
0.283333	0.1
0.3	0.1
0.316667	0.1
0.333333	0.1
0.35	0.1
0.366667	0.1
0.383333	0.1
0.4	0.1
0.416667	0.1
0.433333	0.1
0.45	0.1
0.466667	0.1
0.483333	0.1
0.5	0.1
0.516667	0.125981
0.533333	0.151962
0.55	0.177942
0.566667	0.203923
0.583333	0.229904
0.6	0.255885
0.616667	0.281865
0.633333	0.307846
0.65	0.333827
0.666667	0.359808
0.683333	0.385788
0.7	0.411769
0.716667	0.43775
0.733333	0.463731
0.75	0.489711
0.766667	0.515692
0.783333	0.541673
0.8	0.567654
0.816667	0.593634
0.833333	0.619615
0.85	0.645596
0.866667	0.671577
0.883333	0.697558
0.9	0.723538
0.916667	0.749519
0.933333	0.7755
0.95	0.801481
0.966667	0.827461
0.983333	0.853442
1	0.879423
0	0
0	0
0	0
0	0
0	0
0	0
0	0
0	0
0	0
0	0
0	0
0	0
0	0
0	0
0	0
0	0
0	0
0	0
0	0
0	0
0	0
0	0
0	0
0	0
0	0
0	0
0	0
0	0
0	0
0.788675	0.55
1.30534	0.1
1.32201	0.1
1.33868	0.1
1.35534	0.1
1.37201	0.1
1.38868	0.1
1.40534	0.1
1.42201	0.1
1.43868	0.1
1.45534	0.1
1.47201	0.1
1.48868	0.1
1.50534	0.1
1.52201	0.1
1.53868	0.1
1.55534	0.1
1.57201	0.1
1.58868	0.1
1.60534	0.1
1.62201	0.1
1.63868	0.1
1.65534	0.1
1.67201	0.1
1.68868	0.1
1.70534	0.1
1.72201	0.1
1.73868	0.1
1.75534	0.1
1.77201	0.1
1.78868	0.1
0	0.125
0.0166667	0.125
0.0333333	0.125
0.05	0.125
0.0666667	0.125
0.0833333	0.125
0.1	0.125
0.116667	0.125
0.133333	0.125
0.15	0.125
0.166667	0.125
0.183333	0.125
0.2	0.125
0.216667	0.125
0.233333	0.125
0.25	0.125
0.266667	0.125
0.283333	0.125
0.3	0.125
0.316667	0.125
0.333333	0.125
0.35	0.125
0.366667	0.125
0.383333	0.125
0.4	0.125
0.416667	0.125
0.433333	0.125
0.45	0.125
0.466667	0.125
0.483333	0.125
0.5	0.125
0.516667	0.150259
0.533333	0.175518
0.55	0.200777
0.566667	0.226036
0.583333	0.251295
0.6	0.276554
0.616667	0.301814
0.633333	0.327073
0.65	0.352332
0.666667	0.377591
0.683333	0.40285
0.7	0.428109
0.716667	0.453368
0.733333	0.478627
0.75	0.503886
0.766667	0.529145
0.783333	0.554404
0.8	0.579663
0.816667	0.604922
0.833333	0.630181
0.85	0.655441
0.866667	0.6807
0.883333	0.705959
0.9	0.731218
0.916667	0.756477
0.933333	0.781736
0.95	0.806995
0.966667	0.832254
0.983333	0.857513
1	0.882772
0	0
0	0
0	0
0	0
0	0
0	0
0	0
0	0
0	0
0	0
0	0
0	0
0	0
0	0
0	0
0	0
0	0
0	0
0	0
0	0
0	0
0	0
0	0
0	0
0	0
0	0
0	0
0	0
0	0
0.788675	0.5625
1.30534	0.125
1.32201	0.125
1.33868	0.125
1.35534	0.125
1.37201	0.125
1.38868	0.125
1.40534	0.125
1.42201	0.125
1.43868	0.125
1.45534	0.125
1.47201	0.125
1.48868	0.125
1.50534	0.125
1.52201	0.125
1.53868	0.125
1.55534	0.125
1.57201	0.125
1.58868	0.125
1.60534	0.125
1.62201	0.125
1.63868	0.125
1.65534	0.125
1.67201	0.125
1.68868	0.125
1.70534	0.125
1.72201	0.125
1.73868	0.125
1.75534	0.125
1.77201	0.125
1.78868	0.125
0	0.15
0.0166667	0.15
0.0333333	0.15
0.05	0.15
0.0666667	0.15
0.0833333	0.15
0.1	0.15
0.116667	0.15
0.133333	0.15
0.15	0.15
0.166667	0.15
0.183333	0.15
0.2	0.15
0.216667	0.15
0.233333	0.15
0.25	0.15
0.266667	0.15
0.283333	0.15
0.3	0.15
0.316667	0.15
0.333333	0.15
0.35	0.15
0.366667	0.15
0.383333	0.15
0.4	0.15
0.416667	0.15
0.433333	0.15
0.45	0.15
0.466667	0.15
0.483333	0.15
0.5	0.15
0.516667	0.174537
0.533333	0.199075
0.55	0.223612
0.566667	0.24815
0.583333	0.272687
0.6	0.297224
0.616667	0.321762
0.633333	0.346299
0.65	0.370836
0.666667	0.395374
0.683333	0.419911
0.7	0.444449
0.716667	0.468986
0.733333	0.493523
0.75	0.518061
0.766667	0.542598
0.783333	0.567136
0.8	0.591673
0.816667	0.61621
0.833333	0.640748
0.85	0.665285
0.866667	0.689823
0.883333	0.71436
0.9	0.738897
0.916667	0.763435
0.933333	0.787972
0.95	0.812509
0.966667	0.837047
0.983333	0.861584
1	0.886122
0	0
0	0
0	0
0	0
0	0
0	0
0	0
0	0
0	0
0	0
0	0
0	0
0	0
0	0
0	0
0	0
0	0
0	0
0	0
0	0
0	0
0	0
0	0
0	0
0	0
0	0
0	0
0	0
0	0
0.788675	0.575
1.30534	0.15
1.32201	0.15
1.33868	0.15
1.35534	0.15
1.37201	0.15
1.38868	0.15
1.40534	0.15
1.42201	0.15
1.43868	0.15
1.45534	0.15
1.47201	0.15
1.48868	0.15
1.50534	0.15
1.52201	0.15
1.53868	0.15
1.55534	0.15
1.57201	0.15
1.58868	0.15
1.60534	0.15
1.62201	0.15
1.63868	0.15
1.65534	0.15
1.67201	0.15
1.68868	0.15
1.70534	0.15
1.72201	0.15
1.73868	0.15
1.75534	0.15
1.77201	0.15
1.78868	0.15
0	0.175
0.0166667	0.175
0.0333333	0.175
0.05	0.175
0.0666667	0.175
0.0833333	0.175
0.1	0.175
0.116667	0.175
0.133333	0.175
0.15	0.175
0.166667	0.175
0.183333	0.175
0.2	0.175
0.216667	0.175
0.233333	0.175
0.25	0.175
0.266667	0.175
0.283333	0.175
0.3	0.175
0.316667	0.175
0.333333	0.175
0.35	0.175
0.366667	0.175
0.383333	0.175
0.4	0.175
0.416667	0.175
0.433333	0.175
0.45	0.175
0.466667	0.175
0.483333	0.175
0.5	0.175
0.516667	0.198816
0.533333	0.222631
0.55	0.246447
0.566667	0.270263
0.583333	0.294078
0.6	0.317894
0.616667	0.34171
0.633333	0.365526
0.65	0.389341
0.666667	0.413157
0.683333	0.436973
0.7	0.460788
0.716667	0.484604
0.733333	0.50842
0.75	0.532235
0.766667	0.556051
0.783333	0.579867
0.8	0.603683
0.816667	0.627498
0.833333	0.651314
0.85	0.67513
0.866667	0.698945
0.883333	0.722761
0.9	0.746577
0.916667	0.770392
0.933333	0.794208
0.95	0.818024
0.966667	0.84184
0.983333	0.865655
1	0.889471
0	0
0	0
0	0
0	0
0	0
0	0
0	0
0	0
0	0
0	0
0	0
0	0
0	0
0	0
0	0
0	0
0	0
0	0
0	0
0	0
0	0
0	0
0	0
0	0
0	0
0	0
0	0
0	0
0	0
0.788675	0.5875
1.30534	0.175
1.32201	0.175
1.33868	0.175
1.35534	0.175
1.37201	0.175
1.38868	0.175
1.40534	0.175
1.42201	0.175
1.43868	0.175
1.45534	0.175
1.47201	0.175
1.48868	0.175
1.50534	0.175
1.52201	0.175
1.53868	0.175
1.55534	0.175
1.57201	0.175
1.58868	0.175
1.60534	0.175
1.62201	0.175
1.63868	0.175
1.65534	0.175
1.67201	0.175
1.68868	0.175
1.70534	0.175
1.72201	0.175
1.73868	0.175
1.75534	0.175
1.77201	0.175
1.78868	0.175
0	0.2
0.0166667	0.2
0.0333333	0.2
0.05	0.2
0.0666667	0.2
0.0833333	0.2
0.1	0.2
0.116667	0.2
0.133333	0.2
0.15	0.2
0.166667	0.2
0.183333	0.2
0.2	0.2
0.216667	0.2
0.233333	0.2
0.25	0.2
0.266667	0.2
0.283333	0.2
0.3	0.2
0.316667	0.2
0.333333	0.2
0.35	0.2
0.366667	0.2
0.383333	0.2
0.4	0.2
0.416667	0.2
0.433333	0.2
0.45	0.2
0.466667	0.2
0.483333	0.2
0.5	0.2
0.516667	0.223094
0.533333	0.246188
0.55	0.269282
0.566667	0.292376
0.583333	0.31547
0.6	0.338564
0.616667	0.361658
0.633333	0.384752
0.65	0.407846
0.666667	0.43094
0.683333	0.454034
0.7	0.477128
0.716667	0.500222
0.733333	0.523316
0.75	0.54641
0.766667	0.569504
0.783333	0.592598
0.8	0.615692
0.816667	0.638786
0.833333	0.66188
0.85	0.684974
0.866667	0.708068
0.883333	0.731162
0.9	0.754256
0.916667	0.77735
0.933333	0.800444
0.95	0.823538
0.966667	0.846632
0.983333	0.869726
1	0.89282
0	0
0	0
0	0
0	0
0	0
0	0
0	0
0	0
0	0
0	0
0	0
0	0
0	0
0	0
0	0
0	0
0	0
0	0
0	0
0	0
0	0
0	0
0	0
0	0
0	0
0	0
0	0
0	0
0	0
0.788675	0.6
1.30534	0.2
1.32201	0.2
1.33868	0.2
1.35534	0.2
1.37201	0.2
1.38868	0.2
1.40534	0.2
1.42201	0.2
1.43868	0.2
1.45534	0.2
1.47201	0.2
1.48868	0.2
1.50534	0.2
1.52201	0.2
1.53868	0.2
1.55534	0.2
1.57201	0.2
1.58868	0.2
1.60534	0.2
1.62201	0.2
1.63868	0.2
1.65534	0.2
1.67201	0.2
1.68868	0.2
1.70534	0.2
1.72201	0.2
1.73868	0.2
1.75534	0.2
1.77201	0.2
1.78868	0.2
0	0.225
0.0166667	0.225
0.0333333	0.225
0.05	0.225
0.0666667	0.225
0.0833333	0.225
0.1	0.225
0.116667	0.225
0.133333	0.225
0.15	0.225
0.166667	0.225
0.183333	0.225
0.2	0.225
0.216667	0.225
0.233333	0.225
0.25	0.225
0.266667	0.225
0.283333	0.225
0.3	0.225
0.316667	0.225
0.333333	0.225
0.35	0.225
0.366667	0.225
0.383333	0.225
0.4	0.225
0.416667	0.225
0.433333	0.225
0.45	0.225
0.466667	0.225
0.483333	0.225
0.5	0.225
0.516667	0.247372
0.533333	0.269745
0.55	0.292117
0.566667	0.314489
0.583333	0.336862
0.6	0.359234
0.616667	0.381606
0.633333	0.403979
0.65	0.426351
0.666667	0.448723
0.683333	0.471096
0.7	0.493468
0.716667	0.51584
0.733333	0.538213
0.75	0.560585
0.766667	0.582957
0.783333	0.605329
0.8	0.627702
0.816667	0.650074
0.833333	0.672446
0.85	0.694819
0.866667	0.717191
0.883333	0.739563
0.9	0.761936
0.916667	0.784308
0.933333	0.80668
0.95	0.829053
0.966667	0.851425
0.983333	0.873797
1	0.89617
0	0
0	0
0	0
0	0
0	0
0	0
0	0
0	0
0	0
0	0
0	0
0	0
0	0
0	0
0	0
0	0
0	0
0	0
0	0
0	0
0	0
0	0
0	0
0	0
0	0
0	0
0	0
0	0
0	0
0.788675	0.6125
1.30534	0.225
1.32201	0.225
1.33868	0.225
1.35534	0.225
1.37201	0.225
1.38868	0.225
1.40534	0.225
1.42201	0.225
1.43868	0.225
1.45534	0.225
1.47201	0.225
1.48868	0.225
1.50534	0.225
1.52201	0.225
1.53868	0.225
1.55534	0.225
1.57201	0.225
1.58868	0.225
1.60534	0.225
1.62201	0.225
1.63868	0.225
1.65534	0.225
1.67201	0.225
1.68868	0.225
1.70534	0.225
1.72201	0.225
1.73868	0.225
1.75534	0.225
1.77201	0.225
1.78868	0.225
0	0.25
0.0166667	0.25
0.0333333	0.25
0.05	0.25
0.0666667	0.25
0.0833333	0.25
0.1	0.25
0.116667	0.25
0.133333	0.25
0.15	0.25
0.166667	0.25
0.183333	0.25
0.2	0.25
0.216667	0.25
0.233333	0.25
0.25	0.25
0.266667	0.25
0.283333	0.25
0.3	0.25
0.316667	0.25
0.333333	0.25
0.35	0.25
0.366667	0.25
0.383333	0.25
0.4	0.25
0.416667	0.25
0.433333	0.25
0.45	0.25
0.466667	0.25
0.483333	0.25
0.5	0.25
0.516667	0.271651
0.533333	0.293301
0.55	0.314952
0.566667	0.336603
0.583333	0.358253
0.6	0.379904
0.616667	0.401554
0.633333	0.423205
0.65	0.444856
0.666667	0.466506
0.683333	0.488157
0.7	0.509808
0.716667	0.531458
0.733333	0.553109
0.75	0.57476
0.766667	0.59641
0.783333	0.618061
0.8	0.639711
0.816667	0.661362
0.833333	0.683013
0.85	0.704663
0.866667	0.726314
0.883333	0.747965
0.9	0.769615
0.916667	0.791266
0.933333	0.812917
0.95	0.834567
0.966667	0.856218
0.983333	0.877868
1	0.899519
0	0
0	0
0	0
0	0
0	0
0	0
0	0
0	0
0	0
0	0
0	0
0	0
0	0
0	0
0	0
0	0
0	0
0	0
0	0
0	0
0	0
0	0
0	0
0	0
0	0
0	0
0	0
0	0
0	0
0.788675	0.625
1.30534	0.25
1.32201	0.25
1.33868	0.25
1.35534	0.25
1.37201	0.25
1.38868	0.25
1.40534	0.25
1.42201	0.25
1.43868	0.25
1.45534	0.25
1.47201	0.25
1.48868	0.25
1.50534	0.25
1.52201	0.25
1.53868	0.25
1.55534	0.25
1.57201	0.25
1.58868	0.25
1.60534	0.25
1.62201	0.25
1.63868	0.25
1.65534	0.25
1.67201	0.25
1.68868	0.25
1.70534	0.25
1.72201	0.25
1.73868	0.25
1.75534	0.25
1.77201	0.25
1.78868	0.25
0	0.275
0.0166667	0.275
0.0333333	0.275
0.05	0.275
0.0666667	0.275
0.0833333	0.275
0.1	0.275
0.116667	0.275
0.133333	0.275
0.15	0.275
0.166667	0.275
0.183333	0.275
0.2	0.275
0.216667	0.275
0.233333	0.275
0.25	0.275
0.266667	0.275
0.283333	0.275
0.3	0.275
0.316667	0.275
0.333333	0.275
0.35	0.275
0.366667	0.275
0.383333	0.275
0.4	0.275
0.416667	0.275
0.433333	0.275
0.45	0.275
0.466667	0.275
0.483333	0.275
0.5	0.275
0.516667	0.295929
0.533333	0.316858
0.55	0.337787
0.566667	0.358716
0.583333	0.379645
0.6	0.400574
0.616667	0.421503
0.633333	0.442432
0.65	0.463361
0.666667	0.484289
0.683333	0.505218
0.7	0.526147
0.716667	0.547076
0.733333	0.568005
0.75	0.588934
0.766667	0.609863
0.783333	0.630792
0.8	0.651721
0.816667	0.67265
0.833333	0.693579
0.85	0.714508
0.866667	0.735437
0.883333	0.756366
0.9	0.777295
0.916667	0.798224
0.933333	0.819153
0.95	0.840082
0.966667	0.861011
0.983333	0.881939
1	0.902868
0	0
0	0
0	0
0	0
0	0
0	0
0	0
0	0
0	0
0	0
0	0
0	0
0	0
0	0
0	0
0	0
0	0
0	0
0	0
0	0
0	0
0	0
0	0
0	0
0	0
0	0
0	0
0	0
0	0
0.788675	0.6375
1.30534	0.275
1.32201	0.275
1.33868	0.275
1.35534	0.275
1.37201	0.275
1.38868	0.275
1.40534	0.275
1.42201	0.275
1.43868	0.275
1.45534	0.275
1.47201	0.275
1.48868	0.275
1.50534	0.275
1.52201	0.275
1.53868	0.275
1.55534	0.275
1.57201	0.275
1.58868	0.275
1.60534	0.275
1.62201	0.275
1.63868	0.275
1.65534	0.275
1.67201	0.275
1.68868	0.275
1.70534	0.275
1.72201	0.275
1.73868	0.275
1.75534	0.275
1.77201	0.275
1.78868	0.275
0	0.3
0.0166667	0.3
0.0333333	0.3
0.05	0.3
0.0666667	0.3
0.0833333	0.3
0.1	0.3
0.116667	0.3
0.133333	0.3
0.15	0.3
0.166667	0.3
0.183333	0.3
0.2	0.3
0.216667	0.3
0.233333	0.3
0.25	0.3
0.266667	0.3
0.283333	0.3
0.3	0.3
0.316667	0.3
0.333333	0.3
0.35	0.3
0.366667	0.3
0.383333	0.3
0.4	0.3
0.416667	0.3
0.433333	0.3
0.45	0.3
0.466667	0.3
0.483333	0.3
0.5	0.3
0.516667	0.320207
0.533333	0.340415
0.55	0.360622
0.566667	0.380829
0.583333	0.401036
0.6	0.421244
0.616667	0.441451
0.633333	0.461658
0.65	0.481865
0.666667	0.502073
0.683333	0.52228
0.7	0.542487
0.716667	0.562694
0.733333	0.582902
0.75	0.603109
0.766667	0.623316
0.783333	0.643523
0.8	0.663731
0.816667	0.683938
0.833333	0.704145
0.85	0.724352
0.866667	0.74456
0.883333	0.764767
0.9	0.784974
0.916667	0.805181
0.933333	0.825389
0.95	0.845596
0.966667	0.865803
0.983333	0.886011
1	0.906218
0	0
0	0
0	0
0	0
0	0
0	0
0	0
0	0
0	0
0	0
0	0
0	0
0	0
0	0
0	0
0	0
0	0
0	0
0	0
0	0
0	0
0	0
0	0
0	0
0	0
0	0
0	0
0	0
0	0
0.788675	0.65
1.30534	0.3
1.32201	0.3
1.33868	0.3
1.35534	0.3
1.37201	0.3
1.38868	0.3
1.40534	0.3
1.42201	0.3
1.43868	0.3
1.45534	0.3
1.47201	0.3
1.48868	0.3
1.50534	0.3
1.52201	0.3
1.53868	0.3
1.55534	0.3
1.57201	0.3
1.58868	0.3
1.60534	0.3
1.62201	0.3
1.63868	0.3
1.65534	0.3
1.67201	0.3
1.68868	0.3
1.70534	0.3
1.72201	0.3
1.73868	0.3
1.75534	0.3
1.77201	0.3
1.78868	0.3
0	0.325
0.0166667	0.325
0.0333333	0.325
0.05	0.325
0.0666667	0.325
0.0833333	0.325
0.1	0.325
0.116667	0.325
0.133333	0.325
0.15	0.325
0.166667	0.325
0.183333	0.325
0.2	0.325
0.216667	0.325
0.233333	0.325
0.25	0.325
0.266667	0.325
0.283333	0.325
0.3	0.325
0.316667	0.325
0.333333	0.325
0.35	0.325
0.366667	0.325
0.383333	0.325
0.4	0.325
0.416667	0.325
0.433333	0.325
0.45	0.325
0.466667	0.325
0.483333	0.325
0.5	0.325
0.516667	0.344486
0.533333	0.363971
0.55	0.383457
0.566667	0.402942
0.583333	0.422428
0.6	0.441913
0.616667	0.461399
0.633333	0.480885
0.65	0.50037
0.666667	0.519856
0.683333	0.539341
0.7	0.558827
0.716667	0.578312
0.733333	0.597798
0.75	0.617284
0.766667	0.636769
0.783333	0.656255
0.8	0.67574
0.816667	0.695226
0.833333	0.714711
0.85	0.734197
0.866667	0.753683
0.883333	0.773168
0.9	0.792654
0.916667	0.812139
0.933333	0.831625
0.95	0.85111
0.966667	0.870596
0.983333	0.890082
1	0.909567
0	0
0	0
0	0
0	0
0	0
0	0
0	0
0	0
0	0
0	0
0	0
0	0
0	0
0	0
0	0
0	0
0	0
0	0
0	0
0	0
0	0
0	0
0	0
0	0
0	0
0	0
0	0
0	0
0	0
0.788675	0.6625
1.30534	0.325
1.32201	0.325
1.33868	0.325
1.35534	0.325
1.37201	0.325
1.38868	0.325
1.40534	0.325
1.42201	0.325
1.43868	0.325
1.45534	0.325
1.47201	0.325
1.48868	0.325
1.50534	0.325
1.52201	0.325
1.53868	0.325
1.55534	0.325
1.57201	0.325
1.58868	0.325
1.60534	0.325
1.62201	0.325
1.63868	0.325
1.65534	0.325
1.67201	0.325
1.68868	0.325
1.70534	0.325
1.72201	0.325
1.73868	0.325
1.75534	0.325
1.77201	0.325
1.78868	0.325
0	0.35
0.0166667	0.35
0.0333333	0.35
0.05	0.35
0.0666667	0.35
0.0833333	0.35
0.1	0.35
0.116667	0.35
0.133333	0.35
0.15	0.35
0.166667	0.35
0.183333	0.35
0.2	0.35
0.216667	0.35
0.233333	0.35
0.25	0.35
0.266667	0.35
0.283333	0.35
0.3	0.35
0.316667	0.35
0.333333	0.35
0.35	0.35
0.366667	0.35
0.383333	0.35
0.4	0.35
0.416667	0.35
0.433333	0.35
0.45	0.35
0.466667	0.35
0.483333	0.35
0.5	0.35
0.516667	0.368764
0.533333	0.387528
0.55	0.406292
0.566667	0.425056
0.583333	0.443819
0.6	0.462583
0.616667	0.481347
0.633333	0.500111
0.65	0.518875
0.666667	0.537639
0.683333	0.556403
0.7	0.575167
0.716667	0.59393
0.733333	0.612694
0.75	0.631458
0.766667	0.650222
0.783333	0.668986
0.8	0.68775
0.816667	0.706514
0.833333	0.725278
0.85	0.744042
0.866667	0.762805
0.883333	0.781569
0.9	0.800333
0.916667	0.819097
0.933333	0.837861
0.95	0.856625
0.966667	0.875389
0.983333	0.894153
1	0.912917
0	0
0	0
0	0
0	0
0	0
0	0
0	0
0	0
0	0
0	0
0	0
0	0
0	0
0	0
0	0
0	0
0	0
0	0
0	0
0	0
0	0
0	0
0	0
0	0
0	0
0	0
0	0
0	0
0	0
0.788675	0.675
1.30534	0.35
1.32201	0.35
1.33868	0.35
1.35534	0.35
1.37201	0.35
1.38868	0.35
1.40534	0.35
1.42201	0.35
1.43868	0.35
1.45534	0.35
1.47201	0.35
1.48868	0.35
1.50534	0.35
1.52201	0.35
1.53868	0.35
1.55534	0.35
1.57201	0.35
1.58868	0.35
1.60534	0.35
1.62201	0.35
1.63868	0.35
1.65534	0.35
1.67201	0.35
1.68868	0.35
1.70534	0.35
1.72201	0.35
1.73868	0.35
1.75534	0.35
1.77201	0.35
1.78868	0.35
0	0.375
0.0166667	0.375
0.0333333	0.375
0.05	0.375
0.0666667	0.375
0.0833333	0.375
0.1	0.375
0.116667	0.375
0.133333	0.375
0.15	0.375
0.166667	0.375
0.183333	0.375
0.2	0.375
0.216667	0.375
0.233333	0.375
0.25	0.375
0.266667	0.375
0.283333	0.375
0.3	0.375
0.316667	0.375
0.333333	0.375
0.35	0.375
0.366667	0.375
0.383333	0.375
0.4	0.375
0.416667	0.375
0.433333	0.375
0.45	0.375
0.466667	0.375
0.483333	0.375
0.5	0.375
0.516667	0.393042
0.533333	0.411084
0.55	0.429127
0.566667	0.447169
0.583333	0.465211
0.6	0.483253
0.616667	0.501295
0.633333	0.519338
0.65	0.53738
0.666667	0.555422
0.683333	0.573464
0.7	0.591506
0.716667	0.609549
0.733333	0.627591
0.75	0.645633
0.766667	0.663675
0.783333	0.681717
0.8	0.69976
0.816667	0.717802
0.833333	0.735844
0.85	0.753886
0.866667	0.771928
0.883333	0.789971
0.9	0.808013
0.916667	0.826055
0.933333	0.844097
0.95	0.862139
0.966667	0.880181
0.983333	0.898224
1	0.916266
0	0
0	0
0	0
0	0
0	0
0	0
0	0
0	0
0	0
0	0
0	0
0	0
0	0
0	0
0	0
0	0
0	0
0	0
0	0
0	0
0	0
0	0
0	0
0	0
0	0
0	0
0	0
0	0
0	0
0.788675	0.6875
1.30534	0.375
1.32201	0.375
1.33868	0.375
1.35534	0.375
1.37201	0.375
1.38868	0.375
1.40534	0.375
1.42201	0.375
1.43868	0.375
1.45534	0.375
1.47201	0.375
1.48868	0.375
1.50534	0.375
1.52201	0.375
1.53868	0.375
1.55534	0.375
1.57201	0.375
1.58868	0.375
1.60534	0.375
1.62201	0.375
1.63868	0.375
1.65534	0.375
1.67201	0.375
1.68868	0.375
1.70534	0.375
1.72201	0.375
1.73868	0.375
1.75534	0.375
1.77201	0.375
1.78868	0.375
0	0.4
0.0166667	0.4
0.0333333	0.4
0.05	0.4
0.0666667	0.4
0.0833333	0.4
0.1	0.4
0.116667	0.4
0.133333	0.4
0.15	0.4
0.166667	0.4
0.183333	0.4
0.2	0.4
0.216667	0.4
0.233333	0.4
0.25	0.4
0.266667	0.4
0.283333	0.4
0.3	0.4
0.316667	0.4
0.333333	0.4
0.35	0.4
0.366667	0.4
0.383333	0.4
0.4	0.4
0.416667	0.4
0.433333	0.4
0.45	0.4
0.466667	0.4
0.483333	0.4
0.5	0.4
0.516667	0.417321
0.533333	0.434641
0.55	0.451962
0.566667	0.469282
0.583333	0.486603
0.6	0.503923
0.616667	0.521244
0.633333	0.538564
0.65	0.555885
0.666667	0.573205
0.683333	0.590526
0.7	0.607846
0.716667	0.625167
0.733333	0.642487
0.75	0.659808
0.766667	0.677128
0.783333	0.694449
0.8	0.711769
0.816667	0.72909
0.833333	0.74641
0.85	0.763731
0.866667	0.781051
0.883333	0.798372
0.9	0.815692
0.916667	0.833013
0.933333	0.850333
0.95	0.867654
0.966667	0.884974
0.983333	0.902295
1	0.919615
0	0
0	0
0	0
0	0
0	0
0	0
0	0
0	0
0	0
0	0
0	0
0	0
0	0
0	0
0	0
0	0
0	0
0	0
0	0
0	0
0	0
0	0
0	0
0	0
0	0
0	0
0	0
0	0
0	0
0.788675	0.7
1.30534	0.4
1.32201	0.4
1.33868	0.4
1.35534	0.4
1.37201	0.4
1.38868	0.4
1.40534	0.4
1.42201	0.4
1.43868	0.4
1.45534	0.4
1.47201	0.4
1.48868	0.4
1.50534	0.4
1.52201	0.4
1.53868	0.4
1.55534	0.4
1.57201	0.4
1.58868	0.4
1.60534	0.4
1.62201	0.4
1.63868	0.4
1.65534	0.4
1.67201	0.4
1.68868	0.4
1.70534	0.4
1.72201	0.4
1.73868	0.4
1.75534	0.4
1.77201	0.4
1.78868	0.4
0	0.425
0.0166667	0.425
0.0333333	0.425
0.05	0.425
0.0666667	0.425
0.0833333	0.425
0.1	0.425
0.116667	0.425
0.133333	0.425
0.15	0.425
0.166667	0.425
0.183333	0.425
0.2	0.425
0.216667	0.425
0.233333	0.425
0.25	0.425
0.266667	0.425
0.283333	0.425
0.3	0.425
0.316667	0.425
0.333333	0.425
0.35	0.425
0.366667	0.425
0.383333	0.425
0.4	0.425
0.416667	0.425
0.433333	0.425
0.45	0.425
0.466667	0.425
0.483333	0.425
0.5	0.425
0.516667	0.441599
0.533333	0.458198
0.55	0.474796
0.566667	0.491395
0.583333	0.507994
0.6	0.524593
0.616667	0.541192
0.633333	0.557791
0.65	0.574389
0.666667	0.590988
0.683333	0.607587
0.7	0.624186
0.716667	0.640785
0.733333	0.657383
0.75	0.673982
0.766667	0.690581
0.783333	0.70718
0.8	0.723779
0.816667	0.740378
0.833333	0.756976
0.85	0.773575
0.866667	0.790174
0.883333	0.806773
0.9	0.823372
0.916667	0.839971
0.933333	0.856569
0.95	0.873168
0.966667	0.889767
0.983333	0.906366
1	0.922965
0	0
0	0
0	0
0	0
0	0
0	0
0	0
0	0
0	0
0	0
0	0
0	0
0	0
0	0
0	0
0	0
0	0
0	0
0	0
0	0
0	0
0	0
0	0
0	0
0	0
0	0
0	0
0	0
0	0
0.788675	0.7125
1.30534	0.425
1.32201	0.425
1.33868	0.425
1.35534	0.425
1.37201	0.425
1.38868	0.425
1.40534	0.425
1.42201	0.425
1.43868	0.425
1.45534	0.425
1.47201	0.425
1.48868	0.425
1.50534	0.425
1.52201	0.425
1.53868	0.425
1.55534	0.425
1.57201	0.425
1.58868	0.425
1.60534	0.425
1.62201	0.425
1.63868	0.425
1.65534	0.425
1.67201	0.425
1.68868	0.425
1.70534	0.425
1.72201	0.425
1.73868	0.425
1.75534	0.425
1.77201	0.425
1.78868	0.425
0	0.45
0.0166667	0.45
0.0333333	0.45
0.05	0.45
0.0666667	0.45
0.0833333	0.45
0.1	0.45
0.116667	0.45
0.133333	0.45
0.15	0.45
0.166667	0.45
0.183333	0.45
0.2	0.45
0.216667	0.45
0.233333	0.45
0.25	0.45
0.266667	0.45
0.283333	0.45
0.3	0.45
0.316667	0.45
0.333333	0.45
0.35	0.45
0.366667	0.45
0.383333	0.45
0.4	0.45
0.416667	0.45
0.433333	0.45
0.45	0.45
0.466667	0.45
0.483333	0.45
0.5	0.45
0.516667	0.465877
0.533333	0.481754
0.55	0.497631
0.566667	0.513509
0.583333	0.529386
0.6	0.545263
0.616667	0.56114
0.633333	0.577017
0.65	0.592894
0.666667	0.608771
0.683333	0.624648
0.7	0.640526
0.716667	0.656403
0.733333	0.67228
0.75	0.688157
0.766667	0.704034
0.783333	0.719911
0.8	0.735788
0.816667	0.751666
0.833333	0.767543
0.85	0.78342
0.866667	0.799297
0.883333	0.815174
0.9	0.831051
0.916667	0.846928
0.933333	0.862805
0.95	0.878683
0.966667	0.89456
0.983333	0.910437
1	0.926314
0	0
0	0
0	0
0	0
0	0
0	0
0	0
0	0
0	0
0	0
0	0
0	0
0	0
0	0
0	0
0	0
0	0
0	0
0	0
0	0
0	0
0	0
0	0
0	0
0	0
0	0
0	0
0	0
0	0
0.788675	0.725
1.30534	0.45
1.32201	0.45
1.33868	0.45
1.35534	0.45
1.37201	0.45
1.38868	0.45
1.40534	0.45
1.42201	0.45
1.43868	0.45
1.45534	0.45
1.47201	0.45
1.48868	0.45
1.50534	0.45
1.52201	0.45
1.53868	0.45
1.55534	0.45
1.57201	0.45
1.58868	0.45
1.60534	0.45
1.62201	0.45
1.63868	0.45
1.65534	0.45
1.67201	0.45
1.68868	0.45
1.70534	0.45
1.72201	0.45
1.73868	0.45
1.75534	0.45
1.77201	0.45
1.78868	0.45
0	0.475
0.0166667	0.475
0.0333333	0.475
0.05	0.475
0.0666667	0.475
0.0833333	0.475
0.1	0.475
0.116667	0.475
0.133333	0.475
0.15	0.475
0.166667	0.475
0.183333	0.475
0.2	0.475
0.216667	0.475
0.233333	0.475
0.25	0.475
0.266667	0.475
0.283333	0.475
0.3	0.475
0.316667	0.475
0.333333	0.475
0.35	0.475
0.366667	0.475
0.383333	0.475
0.4	0.475
0.416667	0.475
0.433333	0.475
0.45	0.475
0.466667	0.475
0.483333	0.475
0.5	0.475
0.516667	0.490155
0.533333	0.505311
0.55	0.520466
0.566667	0.535622
0.583333	0.550777
0.6	0.565933
0.616667	0.581088
0.633333	0.596244
0.65	0.611399
0.666667	0.626554
0.683333	0.64171
0.7	0.656865
0.716667	0.672021
0.733333	0.687176
0.75	0.702332
0.766667	0.717487
0.783333	0.732643
0.8	0.747798
0.816667	0.762953
0.833333	0.778109
0.85	0.793264
0.866667	0.80842
0.883333	0.823575
0.9	0.838731
0.916667	0.853886
0.933333	0.869042
0.95	0.884197
0.966667	0.899352
0.983333	0.914508
1	0.929663
0	0
0	0
0	0
0	0
0	0
0	0
0	0
0	0
0	0
0	0
0	0
0	0
0	0
0	0
0	0
0	0
0	0
0	0
0	0
0	0
0	0
0	0
0	0
0	0
0	0
0	0
0	0
0	0
0	0
0.788675	0.7375
1.30534	0.475
1.32201	0.475
1.33868	0.475
1.35534	0.475
1.37201	0.475
1.38868	0.475
1.40534	0.475
1.42201	0.475
1.43868	0.475
1.45534	0.475
1.47201	0.475
1.48868	0.475
1.50534	0.475
1.52201	0.475
1.53868	0.475
1.55534	0.475
1.57201	0.475
1.58868	0.475
1.60534	0.475
1.62201	0.475
1.63868	0.475
1.65534	0.475
1.67201	0.475
1.68868	0.475
1.70534	0.475
1.72201	0.475
1.73868	0.475
1.75534	0.475
1.77201	0.475
1.78868	0.475
0	0.5
0.0166667	0.5
0.0333333	0.5
0.05	0.5
0.0666667	0.5
0.0833333	0.5
0.1	0.5
0.116667	0.5
0.133333	0.5
0.15	0.5
0.166667	0.5
0.183333	0.5
0.2	0.5
0.216667	0.5
0.233333	0.5
0.25	0.5
0.266667	0.5
0.283333	0.5
0.3	0.5
0.316667	0.5
0.333333	0.5
0.35	0.5
0.366667	0.5
0.383333	0.5
0.4	0.5
0.416667	0.5
0.433333	0.5
0.45	0.5
0.466667	0.5
0.483333	0.5
0.5	0.5
0.516667	0.514434
0.533333	0.528868
0.55	0.543301
0.566667	0.557735
0.583333	0.572169
0.6	0.586603
0.616667	0.601036
0.633333	0.61547
0.65	0.629904
0.666667	0.644338
0.683333	0.658771
0.7	0.673205
0.716667	0.687639
0.733333	0.702073
0.75	0.716506
0.766667	0.73094
0.783333	0.745374
0.8	0.759808
0.816667	0.774241
0.833333	0.788675
0.85	0.803109
0.866667	0.817543
0.883333	0.831976
0.9	0.84641
0.916667	0.860844
0.933333	0.875278
0.95	0.889711
0.966667	0.904145
0.983333	0.918579
1	0.933013
0	0
0	0
0	0
0	0
0	0
0	0
0	0
0	0
0	0
0	0
0	0
0	0
0	0
0	0
0	0
0	0
0	0
0	0
0	0
0	0
0	0
0	0
0	0
0	0
0	0
0	0
0	0
0	0
0	0
0.788675	0.75
1.30534	0.5
1.32201	0.5
1.33868	0.5
1.35534	0.5
1.37201	0.5
1.38868	0.5
1.40534	0.5
1.42201	0.5
1.43868	0.5
1.45534	0.5
1.47201	0.5
1.48868	0.5
1.50534	0.5
1.52201	0.5
1.53868	0.5
1.55534	0.5
1.57201	0.5
1.58868	0.5
1.60534	0.5
1.62201	0.5
1.63868	0.5
1.65534	0.5
1.67201	0.5
1.68868	0.5
1.70534	0.5
1.72201	0.5
1.73868	0.5
1.75534	0.5
1.77201	0.5
1.78868	0.5
0	0.525
0.0166667	0.525
0.0333333	0.525
0.05	0.525
0.0666667	0.525
0.0833333	0.525
0.1	0.525
0.116667	0.525
0.133333	0.525
0.15	0.525
0.166667	0.525
0.183333	0.525
0.2	0.525
0.216667	0.525
0.233333	0.525
0.25	0.525
0.266667	0.525
0.283333	0.525
0.3	0.525
0.316667	0.525
0.333333	0.525
0.35	0.525
0.366667	0.525
0.383333	0.525
0.4	0.525
0.416667	0.525
0.433333	0.525
0.45	0.525
0.466667	0.525
0.483333	0.525
0.5	0.525
0.516667	0.538712
0.533333	0.552424
0.55	0.566136
0.566667	0.579848