VARIABLES = X Y
ZONE I = 136, J = 51, F = POINT
-0.788675	0
-0.771149	0
-0.753623	0
-0.736097	0
-0.718571	0
-0.701045	0
-0.683518	0
-0.665992	0
-0.648466	0
-0.63094	0
-0.613414	0
-0.595888	0
-0.578362	0
-0.560836	0
-0.54331	0
-0.525783	0
-0.508257	0
-0.490731	0
-0.473205	0
-0.455679	0
-0.438153	0
-0.420627	0
-0.403101	0
-0.385575	0
-0.368048	0
-0.350522	0
-0.332996	0
-0.31547	0
-0.297944	0
-0.280418	0
-0.262892	0
-0.245366	0
-0.227839	0
-0.210313	0
-0.192787	0
-0.175261	0
-0.157735	0
-0.140209	0
-0.122683	0
-0.105157	0
-0.0876306	0
-0.0701045	0
-0.0525783	0
-0.0350522	0
-0.0175261	0
0	0
0.0144338	0.025
0.0288675	0.05
0.0433013	0.075
0.057735	0.1
0.0721688	0.125
0.0866025	0.15
0.101036	0.175
0.11547	0.2
0.129904	0.225
0.144338	0.25
0.158771	0.275
0.173205	0.3
0.187639	0.325
0.202073	0.35
0.216506	0.375
0.23094	0.4
0.245374	0.425
0.259808	0.45
0.274241	0.475
0.288675	0.5
0.308675	0.48
0.328675	0.46
0.348675	0.44
0.368675	0.42
0.388675	0.4
0.408675	0.38
0.428675	0.36
0.448675	0.34
0.468675	0.32
0.488675	0.3
0.508675	0.28
0.528675	0.26
0.548675	0.24
0.568675	0.22
0.588675	0.2
0.608675	0.18
0.628675	0.16
0.648675	0.14
0.668675	0.12
0.688675	0.1
0.708675	0.08
0.728675	0.06
0.748675	0.04
0.768675	0.02
0.788675	0
0.806201	0
0.823727	0
0.841253	0
0.85878	0
0.876306	0
0.893832	0
0.911358	0
0.928884	0
0.94641	0
0.963936	0
0.981462	0
0.998989	0
1.01651	0
1.03404	0
1.05157	0
1.06909	0
1.08662	0
1.10415	0
1.12167	0
1.1392	0
1.15672	0
1.17425	0
1.19178	0
1.2093	0
1.22683	0
1.24435	0
1.26188	0
1.27941	0
1.29693	0
1.31446	0
1.33198	0
1.34951	0
1.36704	0
1.38456	0
1.40209	0
1.41962	0
1.43714	0
1.45467	0
1.47219	0
1.48972	0
1.50725	0
1.52477	0
1.5423	0
1.55982	0
1.57735	0
-0.788675	0.02
-0.771149	0.02
-0.753623	0.02
-0.736097	0.02
-0.718571	0.02
-0.701045	0.02
-0.683518	0.02
-0.665992	0.02
-0.648466	0.02
-0.63094	0.02
-0.613414	0.02
-0.595888	0.02
-0.578362	0.02
-0.560836	0.02
-0.54331	0.02
-0.525783	0.02
-0.508257	0.02
-0.490731	0.02
-0.473205	0.02
-0.455679	0.02
-0.438153	0.02
-0.420627	0.02
-0.403101	0.02
-0.385575	0.02
-0.368048	0.02
-0.350522	0.02
-0.332996	0.02
-0.31547	0.02
-0.297944	0.02
-0.280418	0.02
-0.262892	0.02
-0.245366	0.02
-0.227839	0.02
-0.210313	0.02
-0.192787	0.02
-0.175261	0.02
-0.157735	0.02
-0.140209	0.02
-0.122683	0.02
-0.105157	0.02
-0.0876306	0.02
-0.0701045	0.02
-0.0525783	0.02
-0.0350522	0.02
-0.0175261	0.02
0	0.02
0.0144338	0.0445
0.0288675	0.069
0.0433013	0.0935
0.057735	0.118
0.0721688	0.1425
0.0866025	0.167
0.101036	0.1915
0.11547	0.216
0.129904	0.2405
0.144338	0.265
0.158771	0.2895
0.173205	0.314
0.187639	0.3385
0.202073	0.363
0.216506	0.3875
0.23094	0.412
0.245374	0.4365
0.259808	0.461
0.274241	0.4855
0.288675	0.51
0.308675	0.4904
0.328675	0.4708
0.348675	0.4512
0.368675	0.4316
0.388675	0.412
0.408675	0.3924
0.428675	0.3728
0.448675	0.3532
0.468675	0.3336
0.488675	0.314
0.508675	0.2944
0.528675	0.2748
0.548675	0.2552
0.568675	0.2356
0.588675	0.216
0.608675	0.1964
0.628675	0.1768
0.648675	0.1572
0.668675	0.1376
0.688675	0.118
0.708675	0.0984
0.728675	0.0788
0.748675	0.0592
0.768675	0.0396
0.788675	0.02
0.806201	0.02
0.823727	0.02
0.841253	0.02
0.85878	0.02
0.876306	0.02
0.893832	0.02
0.911358	0.02
0.928884	0.02
0.94641	0.02
0.963936	0.02
0.981462	0.02
0.998989	0.02
1.01651	0.02
1.03404	0.02
1.05157	0.02
1.06909	0.02
1.08662	0.02
1.10415	0.02
1.12167	0.02
1.1392	0.02
1.15672	0.02
1.17425	0.02
1.19178	0.02
1.2093	0.02
1.22683	0.02
1.24435	0.02
1.26188	0.02
1.27941	0.02
1.29693	0.02
1.31446	0.02
1.33198	0.02
1.34951	0.02
1.36704	0.02
1.38456	0.02
1.40209	0.02
1.41962	0.02
1.43714	0.02
1.45467	0.02
1.47219	0.02
1.48972	0.02
1.50725	0.02
1.52477	0.02
1.5423	0.02
1.55982	0.02
1.57735	0.02
-0.788675	0.04
-0.771149	0.04
-0.753623	0.04
-0.736097	0.04
-0.718571	0.04
-0.701045	0.04
-0.683518	0.04
-0.665992	0.04
-0.648466	0.04
-0.63094	0.04
-0.613414	0.04
-0.595888	0.04
-0.578362	0.04
-0.560836	0.04
-0.54331	0.04
-0.525783	0.04
-0.508257	0.04
-0.490731	0.04
-0.473205	0.04
-0.455679	0.04
-0.438153	0.04
-0.420627	0.04
-0.403101	0.04
-0.385575	0.04
-0.368048	0.04
-0.350522	0.04
-0.332996	0.04
-0.31547	0.04
-0.297944	0.04
-0.280418	0.04
-0.262892	0.04
-0.245366	0.04
-0.227839	0.04
-0.210313	0.04
-0.192787	0.04
-0.175261	0.04
-0.157735	0.04
-0.140209	0.04
-0.122683	0.04
-0.105157	0.04
-0.0876306	0.04
-0.0701045	0.04
-0.0525783	0.04
-0.0350522	0.04
-0.0175261	0.04
0	0.04
0.0144338	0.064
0.0288675	0.088
0.0433013	0.112
0.057735	0.136
0.0721688	0.16
0.0866025	0.184
0.101036	0.208
0.11547	0.232
0.129904	0.256
0.144338	0.28
0.158771	0.304
0.173205	0.328
0.187639	0.352
0.202073	0.376
0.216506	0.4
0.23094	0.424
0.245374	0.448
0.259808	0.472
0.274241	0.496
0.288675	0.52
0.308675	0.5008
0.328675	0.4816
0.348675	0.4624
0.368675	0.4432
0.388675	0.424
0.408675	0.4048
0.428675	0.3856
0.448675	0.3664
0.468675	0.3472
0.488675	0.328
0.508675	0.3088
0.528675	0.2896
0.548675	0.2704
0.568675	0.2512
0.588675	0.232
0.608675	0.2128
0.628675	0.1936
0.648675	0.1744
0.668675	0.1552
0.688675	0.136
0.708675	0.1168
0.728675	0.0976
0.748675	0.0784
0.768675	0.0592
0.788675	0.04
0.806201	0.04
0.823727	0.04
0.841253	0.04
0.85878	0.04
0.876306	0.04
0.893832	0.04
0.911358	0.04
0.928884	0.04
0.94641	0.04
0.963936	0.04
0.981462	0.04
0.998989	0.04
1.01651	0.04
1.03404	0.04
1.05157	0.04
1.06909	0.04
1.08662	0.04
1.10415	0.04
1.12167	0.04
1.1392	0.04
1.15672	0.04
1.17425	0.04
1.19178	0.04
1.2093	0.04
1.22683	0.04
1.24435	0.04
1.26188	0.04
1.27941	0.04
1.29693	0.04
1.31446	0.04
1.33198	0.04
1.34951	0.04
1.36704	0.04
1.38456	0.04
1.40209	0.04
1.41962	0.04
1.43714	0.04
1.45467	0.04
1.47219	0.04
1.48972	0.04
1.50725	0.04
1.52477	0.04
1.5423	0.04
1.55982	0.04
1.57735	0.04
-0.788675	0.06
-0.771149	0.06
-0.753623	0.06
-0.736097	0.06
-0.718571	0.06
-0.701045	0.06
-0.683518	0.06
-0.665992	0.06
-0.648466	0.06
-0.63094	0.06
-0.613414	0.06
-0.595888	0.06
-0.578362	0.06
-0.560836	0.06
-0.54331	0.06
-0.525783	0.06
-0.508257	0.06
-0.490731	0.06
-0.473205	0.06
-0.455679	0.06
-0.438153	0.06
-0.420627	0.06
-0.403101	0.06
-0.385575	0.06
-0.368048	0.06
-0.350522	0.06
-0.332996	0.06
-0.31547	0.06
-0.297944	0.06
-0.280418	0.06
-0.262892	0.06
-0.245366	0.06
-0.227839	0.06
-0.210313	0.06
-0.192787	0.06
-0.175261	0.06
-0.157735	0.06
-0.140209	0.06
-0.122683	0.06
-0.105157	0.06
-0.0876306	0.06
-0.0701045	0.06
-0.0525783	0.06
-0.0350522	0.06
-0.0175261	0.06
0	0.06
0.0144338	0.0835
0.0288675	0.107
0.0433013	0.1305
0.057735	0.154
0.0721688	0.1775
0.0866025	0.201
0.101036	0.2245
0.11547	0.248
0.129904	0.2715
0.144338	0.295
0.158771	0.3185
0.173205	0.342
0.187639	0.3655
0.202073	0.389
0.216506	0.4125
0.23094	0.436
0.245374	0.4595
0.259808	0.483
0.274241	0.5065
0.288675	0.53
0.308675	0.5112
0.328675	0.4924
0.348675	0.4736
0.368675	0.4548
0.388675	0.436
0.408675	0.4172
0.428675	0.3984
0.448675	0.3796
0.468675	0.3608
0.488675	0.342
0.508675	0.3232
0.528675	0.3044
0.548675	0.2856
0.568675	0.2668
0.588675	0.248
0.608675	0.2292
0.628675	0.2104
0.648675	0.1916
0.668675	0.1728
0.688675	0.154
0.708675	0.1352
0.728675	0.1164
0.748675	0.0976
0.768675	0.0788
0.788675	0.06
0.806201	0.06
0.823727	0.06
0.841253	0.06
0.85878	0.06
0.876306	0.06
0.893832	0.06
0.911358	0.06
0.928884	0.06
0.94641	0.06
0.963936	0.06
0.981462	0.06
0.998989	0.06
1.01651	0.06
1.03404	0.06
1.05157	0.06
1.06909	0.06
1.08662	0.06
1.10415	0.06
1.12167	0.06
1.1392	0.06
1.15672	0.06
1.17425	0.06
1.19178	0.06
1.2093	0.06
1.22683	0.06
1.24435	0.06
1.26188	0.06
1.27941	0.06
1.29693	0.06
1.31446	0.06
1.33198	0.06
1.34951	0.06
1.36704	0.06
1.38456	0.06
1.40209	0.06
1.41962	0.06
1.43714	0.06
1.45467	0.06
1.47219	0.06
1.48972	0.06
1.50725	0.06
1.52477	0.06
1.5423	0.06
1.55982	0.06
1.57735	0.06
-0.788675	0.08
-0.771149	0.08
-0.753623	0.08
-0.736097	0.08
-0.718571	0.08
-0.701045	0.08
-0.683518	0.08
-0.665992	0.08
-0.648466	0.08
-0.63094	0.08
-0.613414	0.08
-0.595888	0.08
-0.578362	0.08
-0.560836	0.08
-0.54331	0.08
-0.525783	0.08
-0.508257	0.08
-0.490731	0.08
-0.473205	0.08
-0.455679	0.08
-0.438153	0.08
-0.420627	0.08
-0.403101	0.08
-0.385575	0.08
-0.368048	0.08
-0.350522	0.08
-0.332996	0.08
-0.31547	0.08
-0.297944	0.08
-0.280418	0.08
-0.262892	0.08
-0.245366	0.08
-0.227839	0.08
-0.210313	0.08
-0.192787	0.08
-0.175261	0.08
-0.157735	0.08
-0.140209	0.08
-0.122683	0.08
-0.105157	0.08
-0.0876306	0.08
-0.0701045	0.08
-0.0525783	0.08
-0.0350522	0.08
-0.0175261	0.08
0	0.08
0.0144338	0.103
0.0288675	0.126
0.0433013	0.149
0.057735	0.172
0.0721688	0.195
0.0866025	0.218
0.101036	0.241
0.11547	0.264
0.129904	0.287
0.144338	0.31
0.158771	0.333
0.173205	0.356
0.187639	0.379
0.202073	0.402
0.216506	0.425
0.23094	0.448
0.245374	0.471
0.259808	0.494
0.274241	0.517
0.288675	0.54
0.308675	0.5216
0.328675	0.5032
0.348675	0.4848
0.368675	0.4664
0.388675	0.448
0.408675	0.4296
0.428675	0.4112
0.448675	0.3928
0.468675	0.3744
0.488675	0.356
0.508675	0.3376
0.528675	0.3192
0.548675	0.3008
0.568675	0.2824
0.588675	0.264
0.608675	0.2456
0.628675	0.2272
0.648675	0.2088
0.668675	0.1904
0.688675	0.172
0.708675	0.1536
0.728675	0.1352
0.748675	0.1168
0.768675	0.0984
0.788675	0.08
0.806201	0.08
0.823727	0.08
0.841253	0.08
0.85878	0.08
0.876306	0.08
0.893832	0.08
0.911358	0.08
0.928884	0.08
0.94641	0.08
0.963936	0.08
0.981462	0.08
0.998989	0.08
1.01651	0.08
1.03404	0.08
1.05157	0.08
1.06909	0.08
1.08662	0.08
1.10415	0.08
1.12167	0.08
1.1392	0.08
1.15672	0.08
1.17425	0.08
1.19178	0.08
1.2093	0.08
1.22683	0.08
1.24435	0.08
1.26188	0.08
1.27941	0.08
1.29693	0.08
1.31446	0.08
1.33198	0.08
1.34951	0.08
1.36704	0.08
1.38456	0.08
1.40209	0.08
1.41962	0.08
1.43714	0.08
1.45467	0.08
1.47219	0.08
1.48972	0.08
1.50725	0.08
1.52477	0.08
1.5423	0.08
1.55982	0.08
1.57735	0.08
-0.788675	0.1
-0.771149	0.1
-0.753623	0.1
-0.736097	0.1
-0.718571	0.1
-0.701045	0.1
-0.683518	0.1
-0.665992	0.1
-0.648466	0.1
-0.63094	0.1
-0.613414	0.1
-0.595888	0.1
-0.578362	0.1
-0.560836	0.1
-0.54331	0.1
-0.525783	0.1
-0.508257	0.1
-0.490731	0.1
-0.473205	0.1
-0.455679	0.1
-0.438153	0.1
-0.420627	0.1
-0.403101	0.1
-0.385575	0.1
-0.368048	0.1
-0.350522	0.1
-0.332996	0.1
-0.31547	0.1
-0.297944	0.1
-0.280418	0.1
-0.262892	0.1
-0.245366	0.1
-0.227839	0.1
-0.210313	0.1
-0.192787	0.1
-0.175261	0.1
-0.157735	0.1
-0.140209	0.1
-0.122683	0.1
-0.105157	0.1
-0.0876306	0.1
-0.0701045	0.1
-0.0525783	0.1
-0.0350522	0.1
-0.0175261	0.1
0	0.1
0.0144338	0.1225
0.0288675	0.145
0.0433013	0.1675
0.057735	0.19
0.0721688	0.2125
0.0866025	0.235
0.101036	0.2575
0.11547	0.28
0.129904	0.3025
0.144338	0.325
0.158771	0.3475
0.173205	0.37
0.187639	0.3925
0.202073	0.415
0.216506	0.4375
0.23094	0.46
0.245374	0.4825
0.259808	0.505
0.274241	0.5275
0.288675	0.55
0.308675	0.532
0.328675	0.514
0.348675	0.496
0.368675	0.478
0.388675	0.46
0.408675	0.442
0.428675	0.424
0.448675	0.406
0.468675	0.388
0.488675	0.37
0.508675	0.352
0.528675	0.334
0.548675	0.316
0.568675	0.298
0.588675	0.28
0.608675	0.262
0.628675	0.244
0.648675	0.226
0.668675	0.208
0.688675	0.19
0.708675	0.172
0.728675	0.154
0.748675	0.136
0.768675	0.118
0.788675	0.1
0.806201	0.1
0.823727	0.1
0.841253	0.1
0.85878	0.1
0.876306	0.1
0.893832	0.1
0.911358	0.1
0.928884	0.1
0.94641	0.1
0.963936	0.1
0.981462	0.1
0.998989	0.1
1.01651	0.1
1.03404	0.1
1.05157	0.1
1.06909	0.1
1.08662	0.1
1.10415	0.1
1.12167	0.1
1.1392	0.1
1.15672	0.1
1.17425	0.1
1.19178	0.1
1.2093	0.1
1.22683	0.1
1.24435	0.1
1.26188	0.1
1.27941	0.1
1.29693	0.1
1.31446	0.1
1.33198	0.1
1.34951	0.1
1.36704	0.1
1.38456	0.1
1.40209	0.1
1.41962	0.1
1.43714	0.1
1.45467	0.1
1.47219	0.1
1.48972	0.1
1.50725	0.1
1.52477	0.1
1.5423	0.1
1.55982	0.1
1.57735	0.1
-0.788675	0.12
-0.771149	0.12
-0.753623	0.12
-0.736097	0.12
-0.718571	0.12
-0.701045	0.12
-0.683518	0.12
-0.665992	0.12
-0.648466	0.12
-0.63094	0.12
-0.613414	0.12
-0.595888	0.12
-0.578362	0.12
-0.560836	0.12
-0.54331	0.12
-0.525783	0.12
-0.508257	0.12
-0.490731	0.12
-0.473205	0.12
-0.455679	0.12
-0.438153	0.12
-0.420627	0.12
-0.403101	0.12
-0.385575	0.12
-0.368048	0.12
-0.350522	0.12
-0.332996	0.12
-0.31547	0.12
-0.297944	0.12
-0.280418	0.12
-0.262892	0.12
-0.245366	0.12
-0.227839	0.12
-0.210313	0.12
-0.192787	0.12
-0.175261	0.12
-0.157735	0.12
-0.140209	0.12
-0.122683	0.12
-0.105157	0.12
-0.0876306	0.12
-0.0701045	0.12
-0.0525783	0.12
-0.0350522	0.12
-0.0175261	0.12
0	0.12
0.0144338	0.142
0.0288675	0.164
0.0433013	0.186
0.057735	0.208
0.0721688	0.23
0.0866025	0.252
0.101036	0.274
0.11547	0.296
0.129904	0.318
0.144338	0.34
0.158771	0.362
0.173205	0.384
0.187639	0.406
0.202073	0.428
0.216506	0.45
0.23094	0.472
0.245374	0.494
0.259808	0.516
0.274241	0.538
0.288675	0.56
0.308675	0.5424
0.328675	0.5248
0.348675	0.5072
0.368675	0.4896
0.388675	0.472
0.408675	0.4544
0.428675	0.4368
0.448675	0.4192
0.468675	0.4016
0.488675	0.384
0.508675	0.3664
0.528675	0.3488
0.548675	0.3312
0.568675	0.3136
0.588675	0.296
0.608675	0.2784
0.628675	0.2608
0.648675	0.2432
0.668675	0.2256
0.688675	0.208
0.708675	0.1904
0.728675	0.1728
0.748675	0.1552
0.768675	0.1376
0.788675	0.12
0.806201	0.12
0.823727	0.12
0.841253	0.12
0.85878	0.12
0.876306	0.12
0.893832	0.12
0.911358	0.12
0.928884	0.12
0.94641	0.12
0.963936	0.12
0.981462	0.12
0.998989	0.12
1.01651	0.12
1.03404	0.12
1.05157	0.12
1.06909	0.12
1.08662	0.12
1.10415	0.12
1.12167	0.12
1.1392	0.12
1.15672	0.12
1.17425	0.12
1.19178	0.12
1.2093	0.12
1.22683	0.12
1.24435	0.12
1.26188	0.12
1.27941	0.12
1.29693	0.12
1.31446	0.12
1.33198	0.12
1.34951	0.12
1.36704	0.12
1.38456	0.12
1.40209	0.12
1.41962	0.12
1.43714	0.12
1.45467	0.12
1.47219	0.12
1.48972	0.12
1.50725	0.12
1.52477	0.12
1.5423	0.12
1.55982	0.12
1.57735	0.12
-0.788675	0.14
-0.771149	0.14
-0.753623	0.14
-0.736097	0.14
-0.718571	0.14
-0.701045	0.14
-0.683518	0.14
-0.665992	0.14
-0.648466	0.14
-0.63094	0.14
-0.613414	0.14
-0.595888	0.14
-0.578362	0.14
-0.560836	0.14
-0.54331	0.14
-0.525783	0.14
-0.508257	0.14
-0.490731	0.14
-0.473205	0.14
-0.455679	0.14
-0.438153	0.14
-0.420627	0.14
-0.403101	0.14
-0.385575	0.14
-0.368048	0.14
-0.350522	0.14
-0.332996	0.14
-0.31547	0.14
-0.297944	0.14
-0.280418	0.14
-0.262892	0.14
-0.245366	0.14
-0.227839	0.14
-0.210313	0.14
-0.192787	0.14
-0.175261	0.14
-0.157735	0.14
-0.140209	0.14
-0.122683	0.14
-0.105157	0.14
-0.0876306	0.14
-0.0701045	0.14
-0.0525783	0.14
-0.0350522	0.14
-0.0175261	0.14
0	0.14
0.0144338	0.1615
0.0288675	0.183
0.0433013	0.2045
0.057735	0.226
0.0721688	0.2475
0.0866025	0.269
0.101036	0.2905
0.11547	0.312
0.129904	0.3335
0.144338	0.355
0.158771	0.3765
0.173205	0.398
0.187639	0.4195
0.202073	0.441
0.216506	0.4625
0.23094	0.484
0.245374	0.5055
0.259808	0.527
0.274241	0.5485
0.288675	0.57
0.308675	0.5528
0.328675	0.5356
0.348675	0.5184
0.368675	0.5012
0.388675	0.484
0.408675	0.4668
0.428675	0.4496
0.448675	0.4324
0.468675	0.4152
0.488675	0.398
0.508675	0.3808
0.528675	0.3636
0.548675	0.3464
0.568675	0.3292
0.588675	0.312
0.608675	0.2948
0.628675	0.2776
0.648675	0.2604
0.668675	0.2432
0.688675	0.226
0.708675	0.2088
0.728675	0.1916
0.748675	0.1744
0.768675	0.1572
0.788675	0.14
0.806201	0.14
0.823727	0.14
0.841253	0.14
0.85878	0.14
0.876306	0.14
0.893832	0.14
0.911358	0.14
0.928884	0.14
0.94641	0.14
0.963936	0.14
0.981462	0.14
0.998989	0.14
1.01651	0.14
1.03404	0.14
1.05157	0.14
1.06909	0.14
1.08662	0.14
1.10415	0.14
1.12167	0.14
1.1392	0.14
1.15672	0.14
1.17425	0.14
1.19178	0.14
1.2093	0.14
1.22683	0.14
1.24435	0.14
1.26188	0.14
1.27941	0.14
1.29693	0.14
1.31446	0.14
1.33198	0.14
1.34951	0.14
1.36704	0.14
1.38456	0.14
1.40209	0.14
1.41962	0.14
1.43714	0.14
1.45467	0.14
1.47219	0.14
1.48972	0.14
1.50725	0.14
1.52477	0.14
1.5423	0.14
1.55982	0.14
1.57735	0.14
-0.788675	0.16
-0.771149	0.16
-0.753623	0.16
-0.736097	0.16
-0.718571	0.16
-0.701045	0.16
-0.683518	0.16
-0.665992	0.16
-0.648466	0.16
-0.63094	0.16
-0.613414	0.16
-0.595888	0.16
-0.578362	0.16
-0.560836	0.16
-0.54331	0.16
-0.525783	0.16
-0.508257	0.16
-0.490731	0.16
-0.473205	0.16
-0.455679	0.16
-0.438153	0.16
-0.420627	0.16
-0.403101	0.16
-0.385575	0.16
-0.368048	0.16
-0.350522	0.16
-0.332996	0.16
-0.31547	0.16
-0.297944	0.16
-0.280418	0.16
-0.262892	0.16
-0.245366	0.16
-0.227839	0.16
-0.210313	0.16
-0.192787	0.16
-0.175261	0.16
-0.157735	0.16
-0.140209	0.16
-0.122683	0.16
-0.105157	0.16
-0.0876306	0.16
-0.0701045	0.16
-0.0525783	0.16
-0.0350522	0.16
-0.0175261	0.16
0	0.16
0.0144338	0.181
0.0288675	0.202
0.0433013	0.223
0.057735	0.244
0.0721688	0.265
0.0866025	0.286
0.101036	0.307
0.11547	0.328
0.129904	0.349
0.144338	0.37
0.158771	0.391
0.173205	0.412
0.187639	0.433
0.202073	0.454
0.216506	0.475
0.23094	0.496
0.245374	0.517
0.259808	0.538
0.274241	0.559
0.288675	0.58
0.308675	0.5632
0.328675	0.5464
0.348675	0.5296
0.368675	0.5128
0.388675	0.496
0.408675	0.4792
0.428675	0.4624
0.448675	0.4456
0.468675	0.4288
0.488675	0.412
0.508675	0.3952
0.528675	0.3784
0.548675	0.3616
0.568675	0.3448
0.588675	0.328
0.608675	0.3112
0.628675	0.2944
0.648675	0.2776
0.668675	0.2608
0.688675	0.244
0.708675	0.2272
0.728675	0.2104
0.748675	0.1936
0.768675	0.1768
0.788675	0.16
0.806201	0.16
0.823727	0.16
0.841253	0.16
0.85878	0.16
0.876306	0.16
0.893832	0.16
0.911358	0.16
0.928884	0.16
0.94641	0.16
0.963936	0.16
0.981462	0.16
0.998989	0.16
1.01651	0.16
1.03404	0.16
1.05157	0.16
1.06909	0.16
1.08662	0.16
1.10415	0.16
1.12167	0.16
1.1392	0.16
1.15672	0.16
1.17425	0.16
1.19178	0.16
1.2093	0.16
1.22683	0.16
1.24435	0.16
1.26188	0.16
1.27941	0.16
1.29693	0.16
1.31446	0.16
1.33198	0.16
1.34951	0.16
1.36704	0.16
1.38456	0.16
1.40209	0.16
1.41962	0.16
1.43714	0.16
1.45467	0.16
1.47219	0.16
1.48972	0.16
1.50725	0.16
1.52477	0.16
1.5423	0.16
1.55982	0.16
1.57735	0.16
-0.788675	0.18
-0.771149	0.18
-0.753623	0.18
-0.736097	0.18
-0.718571	0.18
-0.701045	0.18
-0.683518	0.18
-0.665992	0.18
-0.648466	0.18
-0.63094	0.18
-0.613414	0.18
-0.595888	0.18
-0.578362	0.18
-0.560836	0.18
-0.54331	0.18
-0.525783	0.18
-0.508257	0.18
-0.490731	0.18
-0.473205	0.18
-0.455679	0.18
-0.438153	0.18
-0.420627	0.18
-0.403101	0.18
-0.385575	0.18
-0.368048	0.18
-0.350522	0.18
-0.332996	0.18
-0.31547	0.18
-0.297944	0.18
-0.280418	0.18
-0.262892	0.18
-0.245366	0.18
-0.227839	0.18
-0.210313	0.18
-0.192787	0.18
-0.175261	0.18
-0.157735	0.18
-0.140209	0.18
-0.122683	0.18
-0.105157	0.18
-0.0876306	0.18
-0.0701045	0.18
-0.0525783	0.18
-0.0350522	0.18
-0.0175261	0.18
0	0.18
0.0144338	0.2005
0.0288675	0.221
0.0433013	0.2415
0.057735	0.262
0.0721688	0.2825
0.0866025	0.303
0.101036	0.3235
0.11547	0.344
0.129904	0.3645
0.144338	0.385
0.158771	0.4055
0.173205	0.426
0.187639	0.4465
0.202073	0.467
0.216506	0.4875
0.23094	0.508
0.245374	0.5285
0.259808	0.549
0.274241	0.5695
0.288675	0.59
0.308675	0.5736
0.328675	0.5572
0.348675	0.5408
0.368675	0.5244
0.388675	0.508
0.408675	0.4916
0.428675	0.4752
0.448675	0.4588
0.468675	0.4424
0.488675	0.426
0.508675	0.4096
0.528675	0.3932
0.548675	0.3768
0.568675	0.3604
0.588675	0.344
0.608675	0.3276
0.628675	0.3112
0.648675	0.2948
0.668675	0.2784
0.688675	0.262
0.708675	0.2456
0.728675	0.2292
0.748675	0.2128
0.768675	0.1964
0.788675	0.18
0.806201	0.18
0.823727	0.18
0.841253	0.18
0.85878	0.18
0.876306	0.18
0.893832	0.18
0.911358	0.18
0.928884	0.18
0.94641	0.18
0.963936	0.18
0.981462	0.18
0.998989	0.18
1.01651	0.18
1.03404	0.18
1.05157	0.18
1.06909	0.18
1.08662	0.18
1.10415	0.18
1.12167	0.18
1.1392	0.18
1.15672	0.18
1.17425	0.18
1.19178	0.18
1.2093	0.18
1.22683	0.18
1.24435	0.18
1.26188	0.18
1.27941	0.18
1.29693	0.18
1.31446	0.18
1.33198	0.18
1.34951	0.18
1.36704	0.18
1.38456	0.18
1.40209	0.18
1.41962	0.18
1.43714	0.18
1.45467	0.18
1.47219	0.18
1.48972	0.18
1.50725	0.18
1.52477	0.18
1.5423	0.18
1.55982	0.18
1.57735	0.18
-0.788675	0.2
-0.771149	0.2
-0.753623	0.2
-0.736097	0.2
-0.718571	0.2
-0.701045	0.2
-0.683518	0.2
-0.665992	0.2
-0.648466	0.2
-0.63094	0.2
-0.613414	0.2
-0.595888	0.2
-0.578362	0.2
-0.560836	0.2
-0.54331	0.2
-0.525783	0.2
-0.508257	0.2
-0.490731	0.2
-0.473205	0.2
-0.455679	0.2
-0.438153	0.2
-0.420627	0.2
-0.403101	0.2
-0.385575	0.2
-0.368048	0.2
-0.350522	0.2
-0.332996	0.2
-0.31547	0.2
-0.297944	0.2
-0.280418	0.2
-0.262892	0.2
-0.245366	0.2
-0.227839	0.2
-0.210313	0.2
-0.192787	0.2
-0.175261	0.2
-0.157735	0.2
-0.140209	0.2
-0.122683	0.2
-0.105157	0.2
-0.0876306	0.2
-0.0701045	0.2
-0.0525783	0.2
-0.0350522	0.2
-0.0175261	0.2
0	0.2
0.0144338	0.22
0.0288675	0.24
0.0433013	0.26
0.057735	0.28
0.0721688	0.3
0.0866025	0.32
0.101036	0.34
0.11547	0.36
0.129904	0.38
0.144338	0.4
0.158771	0.42
0.173205	0.44
0.187639	0.46
0.202073	0.48
0.216506	0.5
0.23094	0.52
0.245374	0.54
0.259808	0.56
0.274241	0.58
0.288675	0.6
0.308675	0.584
0.328675	0.568
0.348675	0.552
0.368675	0.536
0.388675	0.52
0.408675	0.504
0.428675	0.488
0.448675	0.472
0.468675	0.456
0.488675	0.44
0.508675	0.424
0.528675	0.408
0.548675	0.392
0.568675	0.376
0.588675	0.36
0.608675	0.344
0.628675	0.328
0.648675	0.312
0.668675	0.296
0.688675	0.28
0.708675	0.264
0.728675	0.248
0.748675	0.232
0.768675	0.216
0.788675	0.2
0.806201	0.2
0.823727	0.2
0.841253	0.2
0.85878	0.2
0.876306	0.2
0.893832	0.2
0.911358	0.2
0.928884	0.2
0.94641	0.2
0.963936	0.2
0.981462	0.2
0.998989	0.2
1.01651	0.2
1.03404	0.2
1.05157	0.2
1.06909	0.2
1.08662	0.2
1.10415	0.2
1.12167	0.2
1.1392	0.2
1.15672	0.2
1.17425	0.2
1.19178	0.2
1.2093	0.2
1.22683	0.2
1.24435	0.2
1.26188	0.2
1.27941	0.2
1.29693	0.2
1.31446	0.2
1.33198	0.2
1.34951	0.2
1.36704	0.2
1.38456	0.2
1.40209	0.2
1.41962	0.2
1.43714	0.2
1.45467	0.2
1.47219	0.2
1.48972	0.2
1.50725	0.2
1.52477	0.2
1.5423	0.2
1.55982	0.2
1.57735	0.2
-0.788675	0.22
-0.771149	0.22
-0.753623	0.22
-0.736097	0.22
-0.718571	0.22
-0.701045	0.22
-0.683518	0.22
-0.665992	0.22
-0.648466	0.22
-0.63094	0.22
-0.613414	0.22
-0.595888	0.22
-0.578362	0.22
-0.560836	0.22
-0.54331	0.22
-0.525783	0.22
-0.508257	0.22
-0.490731	0.22
-0.473205	0.22
-0.455679	0.22
-0.438153	0.22
-0.420627	0.22
-0.403101	0.22
-0.385575	0.22
-0.368048	0.22
-0.350522	0.22
-0.332996	0.22
-0.31547	0.22
-0.297944	0.22
-0.280418	0.22
-0.262892	0.22
-0.245366	0.22
-0.227839	0.22
-0.210313	0.22
-0.192787	0.22
-0.175261	0.22
-0.157735	0.22
-0.140209	0.22
-0.122683	0.22
-0.105157	0.22
-0.0876306	0.22
-0.0701045	0.22
-0.0525783	0.22
-0.0350522	0.22
-0.0175261	0.22
0	0.22
0.0144338	0.2395
0.0288675	0.259
0.0433013	0.2785
0.057735	0.298
0.0721688	0.3175
0.0866025	0.337
0.101036	0.3565
0.11547	0.376
0.129904	0.3955
0.144338	0.415
0.158771	0.4345
0.173205	0.454
0.187639	0.4735
0.202073	0.493
0.216506	0.5125
0.23094	0.532
0.245374	0.5515
0.259808	0.571
0.274241	0.5905
0.288675	0.61
0.308675	0.5944
0.328675	0.5788
0.348675	0.5632
0.368675	0.5476
0.388675	0.532
0.408675	0.5164
0.428675	0.5008
0.448675	0.4852
0.468675	0.4696
0.488675	0.454
0.508675	0.4384
0.528675	0.4228
0.548675	0.4072
0.568675	0.3916
0.588675	0.376
0.608675	0.3604
0.628675	0.3448
0.648675	0.3292
0.668675	0.3136
0.688675	0.298
0.708675	0.2824
0.728675	0.2668
0.748675	0.2512
0.768675	0.2356
0.788675	0.22
0.806201	0.22
0.823727	0.22
0.841253	0.22
0.85878	0.22
0.876306	0.22
0.893832	0.22
0.911358	0.22
0.928884	0.22
0.94641	0.22
0.963936	0.22
0.981462	0.22
0.998989	0.22
1.01651	0.22
1.03404	0.22
1.05157	0.22
1.06909	0.22
1.08662	0.22
1.10415	0.22
1.12167	0.22
1.1392	0.22
1.15672	0.22
1.17425	0.22
1.19178	0.22
1.2093	0.22
1.22683	0.22
1.24435	0.22
1.26188	0.22
1.27941	0.22
1.29693	0.22
1.31446	0.22
1.33198	0.22
1.34951	0.22
1.36704	0.22
1.38456	0.22
1.40209	0.22
1.41962	0.22
1.43714	0.22
1.45467	0.22
1.47219	0.22
1.48972	0.22
1.50725	0.22
1.52477	0.22
1.5423	0.22
1.55982	0.22
1.57735	0.22
-0.788675	0.24
-0.771149	0.24
-0.753623	0.24
-0.736097	0.24
-0.718571	0.24
-0.701045	0.24
-0.683518	0.24
-0.665992	0.24
-0.648466	0.24
-0.63094	0.24
-0.613414	0.24
-0.595888	0.24
-0.578362	0.24
-0.560836	0.24
-0.54331	0.24
-0.525783	0.24
-0.508257	0.24
-0.490731	0.24
-0.473205	0.24
-0.455679	0.24
-0.438153	0.24
-0.420627	0.24
-0.403101	0.24
-0.385575	0.24
-0.368048	0.24
-0.350522	0.24
-0.332996	0.24
-0.31547	0.24
-0.297944	0.24
-0.280418	0.24
-0.262892	0.24
-0.245366	0.24
-0.227839	0.24
-0.210313	0.24
-0.192787	0.24
-0.175261	0.24
-0.157735	0.24
-0.140209	0.24
-0.122683	0.24
-0.105157	0.24
-0.0876306	0.24
-0.0701045	0.24
-0.0525783	0.24
-0.0350522	0.24
-0.0175261	0.24
0	0.24
0.0144338	0.259
0.0288675	0.278
0.0433013	0.297
0.057735	0.316
0.0721688	0.335
0.0866025	0.354
0.101036	0.373
0.11547	0.392
0.129904	0.411
0.144338	0.43
0.158771	0.449
0.173205	0.468
0.187639	0.487
0.202073	0.506
0.216506	0.525
0.23094	0.544
0.245374	0.563
0.259808	0.582
0.274241	0.601
0.288675	0.62
0.308675	0.6048
0.328675	0.5896
0.348675	0.5744
0.368675	0.5592
0.388675	0.544
0.408675	0.5288
0.428675	0.5136
0.448675	0.4984
0.468675	0.4832
0.488675	0.468
0.508675	0.4528
0.528675	0.4376
0.548675	0.4224
0.568675	0.4072
0.588675	0.392
0.608675	0.3768
0.628675	0.3616
0.648675	0.3464
0.668675	0.3312
0.688675	0.316
0.708675	0.3008
0.728675	0.2856
0.748675	0.2704
0.768675	0.2552
0.788675	0.24
0.806201	0.24
0.823727	0.24
0.841253	0.24
0.85878	0.24
0.876306	0.24
0.893832	0.24
0.911358	0.24
0.928884	0.24
0.94641	0.24
0.963936	0.24
0.981462	0.24
0.998989	0.24
1.01651	0.24
1.03404	0.24
1.05157	0.24
1.06909	0.24
1.08662	0.24
1.10415	0.24
1.12167	0.24
1.1392	0.24
1.15672	0.24
1.17425	0.24
1.19178	0.24
1.2093	0.24
1.22683	0.24
1.24435	0.24
1.26188	0.24
1.27941	0.24
1.29693	0.24
1.31446	0.24
1.33198	0.24
1.34951	0.24
1.36704	0.24
1.38456	0.24
1.40209	0.24
1.41962	0.24
1.43714	0.24
1.45467	0.24
1.47219	0.24
1.48972	0.24
1.50725	0.24
1.52477	0.24
1.5423	0.24
1.55982	0.24
1.57735	0.24
-0.788675	0.26
-0.771149	0.26
-0.753623	0.26
-0.736097	0.26
-0.718571	0.26
-0.701045	0.26
-0.683518	0.26
-0.665992	0.26
-0.648466	0.26
-0.63094	0.26
-0.613414	0.26
-0.595888	0.26
-0.578362	0.26
-0.560836	0.26
-0.54331	0.26
-0.525783	0.26
-0.508257	0.26
-0.490731	0.26
-0.473205	0.26
-0.455679	0.26
-0.438153	0.26
-0.420627	0.26
-0.403101	0.26
-0.385575	0.26
-0.368048	0.26
-0.350522	0.26
-0.332996	0.26
-0.31547	0.26
-0.297944	0.26
-0.280418	0.26
-0.262892	0.26
-0.245366	0.26
-0.227839	0.26
-0.210313	0.26
-0.192787	0.26
-0.175261	0.26
-0.157735	0.26
-0.140209	0.26
-0.122683	0.26
-0.105157	0.26
-0.0876306	0.26
-0.0701045	0.26
-0.0525783	0.26
-0.0350522	0.26
-0.0175261	0.26
0	0.26
0.0144338	0.2785
0.0288675	0.297
0.0433013	0.3155
0.057735	0.334
0.0721688	0.3525
0.0866025	0.371
0.101036	0.3895
0.11547	0.408
0.129904	0.4265
0.144338	0.445
0.158771	0.4635
0.173205	0.482
0.187639	0.5005
0.202073	0.519
0.216506	0.5375
0.23094	0.556
0.245374	0.5745
0.259808	0.593
0.274241	0.6115
0.288675	0.63
0.308675	0.6152
0.328675	0.6004
0.348675	0.5856
0.368675	0.5708
0.388675	0.556
0.408675	0.5412
0.428675	0.5264
0.448675	0.5116
0.468675	0.4968
0.488675	0.482
0.508675	0.4672
0.528675	0.4524
0.548675	0.4376
0.568675	0.4228
0.588675	0.408
0.608675	0.3932
0.628675	0.3784
0.648675	0.3636
0.668675	0.3488
0.688675	0.334
0.708675	0.3192
0.728675	0.3044
0.748675	0.2896
0.768675	0.2748
0.788675	0.26
0.806201	0.26
0.823727	0.26
0.841253	0.26
0.85878	0.26
0.876306	0.26
0.893832	0.26
0.911358	0.26
0.928884	0.26
0.94641	0.26
0.963936	0.26
0.981462	0.26
0.998989	0.26
1.01651	0.26
1.03404	0.26
1.05157	0.26
1.06909	0.26
1.08662	0.26
1.10415	0.26
1.12167	0.26
1.1392	0.26
1.15672	0.26
1.17425	0.26
1.19178	0.26
1.2093	0.26
1.22683	0.26
1.24435	0.26
1.26188	0.26
1.27941	0.26
1.29693	0.26
1.31446	0.26
1.33198	0.26
1.34951	0.26
1.36704	0.26
1.38456	0.26
1.40209	0.26
1.41962	0.26
1.43714	0.26
1.45467	0.26
1.47219	0.26
1.48972	0.26
1.50725	0.26
1.52477	0.26
1.5423	0.26
1.55982	0.26
1.57735	0.26
-0.788675	0.28
-0.771149	0.28
-0.753623	0.28
-0.736097	0.28
-0.718571	0.28
-0.701045	0.28
-0.683518	0.28
-0.665992	0.28
-0.648466	0.28
-0.63094	0.28
-0.613414	0.28
-0.595888	0.28
-0.578362	0.28
-0.560836	0.28
-0.54331	0.28
-0.525783	0.28
-0.508257	0.28
-0.490731	0.28
-0.473205	0.28
-0.455679	0.28
-0.438153	0.28
-0.420627	0.28
-0.403101	0.28
-0.385575	0.28
-0.368048	0.28
-0.350522	0.28
-0.332996	0.28
-0.31547	0.28
-0.297944	0.28
-0.280418	0.28
-0.262892	0.28
-0.245366	0.28
-0.227839	0.28
-0.210313	0.28
-0.192787	0.28
-0.175261	0.28
-0.157735	0.28
-0.140209	0.28
-0.122683	0.28
-0.105157	0.28
-0.0876306	0.28
-0.0701045	0.28
-0.0525783	0.28
-0.0350522	0.28
-0.0175261	0.28
0	0.28
0.0144338	0.298
0.0288675	0.316
0.0433013	0.334
0.057735	0.352
0.0721688	0.37
0.0866025	0.388
0.101036	0.406
0.11547	0.424
0.129904	0.442
0.144338	0.46
0.158771	0.478
0.173205	0.496
0.187639	0.514
0.202073	0.532
0.216506	0.55
0.23094	0.568
0.245374	0.586
0.259808	0.604
0.274241	0.622
0.288675	0.64
0.308675	0.6256
0.328675	0.6112
0.348675	0.5968
0.368675	0.5824
0.388675	0.568
0.408675	0.5536
0.428675	0.5392
0.448675	0.5248
0.468675	0.5104
0.488675	0.496
0.508675	0.4816
0.528675	0.4672
0.548675	0.4528
0.568675	0.4384
0.588675	0.424
0.608675	0.4096
0.628675	0.3952
0.648675	0.3808
0.668675	0.3664
0.688675	0.352
0.708675	0.3376
0.728675	0.3232
0.748675	0.3088
0.768675	0.2944
0.788675	0.28
0.806201	0.28
0.823727	0.28
0.841253	0.28
0.85878	0.28
0.876306	0.28
0.893832	0.28
0.911358	0.28
0.928884	0.28
0.94641	0.28
0.963936	0.28
0.981462	0.28
0.998989	0.28
1.01651	0.28
1.03404	0.28
1.05157	0.28
1.06909	0.28
1.08662	0.28
1.10415	0.28
1.12167	0.28
1.1392	0.28
1.15672	0.28
1.17425	0.28
1.19178	0.28
1.2093	0.28
1.22683	0.28
1.24435	0.28
1.26188	0.28
1.27941	0.28
1.29693	0.28
1.31446	0.28
1.33198	0.28
1.34951	0.28
1.36704	0.28
1.38456	0.28
1.40209	0.28
1.41962	0.28
1.43714	0.28
1.45467	0.28
1.47219	0.28
1.48972	0.28
1.50725	0.28
1.52477	0.28
1.5423	0.28
1.55982	0.28
1.57735	0.28
-0.788675	0.3
-0.771149	0.3
-0.753623	0.3
-0.736097	0.3
-0.718571	0.3
-0.701045	0.3
-0.683518	0.3
-0.665992	0.3
-0.648466	0.3
-0.63094	0.3
-0.613414	0.3
-0.595888	0.3
-0.578362	0.3
-0.560836	0.3
-0.54331	0.3
-0.525783	0.3
-0.508257	0.3
-0.490731	0.3
-0.473205	0.3
-0.455679	0.3
-0.438153	0.3
-0.420627	0.3
-0.403101	0.3
-0.385575	0.3
-0.368048	0.3
-0.350522	0.3
-0.332996	0.3
-0.31547	0.3
-0.297944	0.3
-0.280418	0.3
-0.262892	0.3
-0.245366	0.3
-0.227839	0.3
-0.210313	0.3
-0.192787	0.3
-0.175261	0.3
-0.157735	0.3
-0.140209	0.3
-0.122683	0.3
-0.105157	0.3
-0.0876306	0.3
-0.0701045	0.3
-0.0525783	0.3
-0.0350522	0.3
-0.0175261	0.3
0	0.3
0.0144338	0.3175
0.0288675	0.335
0.0433013	0.3525
0.057735	0.37
0.0721688	0.3875
0.0866025	0.405
0.101036	0.4225
0.11547	0.44
0.129904	0.4575
0.144338	0.475
0.158771	0.4925
0.173205	0.51
0.187639	0.5275
0.202073	0.545
0.216506	0.5625
0.23094	0.58
0.245374	0.5975