VARIABLES = X Y
ZONE I = 136, J = 51, F = POINT
-0.788675	0
-0.771149	0
-0.753623	0
-0.736097	0
-0.718571	0
-0.701045	0
-0.683518	0
-0.665992	0
-0.648466	0
-0.63094	0
-0.613414	0
-0.595888	0
-0.578362	0
-0.560836	0
-0.54331	0
-0.525783	0
-0.508257	0
-0.490731	0
-0.473205	0
-0.455679	0
-0.438153	0
-0.420627	0
-0.403101	0
-0.385575	0
-0.368048	0
-0.350522	0
-0.332996	0
-0.31547	0
-0.297944	0
-0.280418	0
-0.262892	0
-0.245366	0
-0.227839	0
-0.210313	0
-0.192787	0
-0.175261	0
-0.157735	0
-0.140209	0
-0.122683	0
-0.105157	0
-0.0876306	0
-0.0701045	0
-0.0525783	0
-0.0350522	0
-0.0175261	0
0	0
0.0144338	0.025
0.0288675	0.05
0.0433013	0.075
0.057735	0.1
0.0721688	0.125
0.0866025	0.15
0.101036	0.175
0.11547	0.2
0.129904	0.225
0.144338	0.25
0.158771	0.275
0.173205	0.3
0.187639	0.325
0.202073	0.35
0.216506	0.375
0.23094	0.4
0.245374	0.425
0.259808	0.45
0.274241	0.475
0.288675	0.5
0.308675	0.48
0.328675	0.46
0.348675	0.44
0.368675	0.42
0.388675	0.4
0.408675	0.38
0.428675	0.36
0.448675	0.34
0.468675	0.32
0.488675	0.3
0.508675	0.28
0.528675	0.26
0.548675	0.24
0.568675	0.22
0.588675	0.2
0.608675	0.18
0.628675	0.16
0.648675	0.14
0.668675	0.12
0.688675	0.1
0.708675	0.08
0.728675	0.06
0.748675	0.04
0.768675	0.02
0.788675	0
0.806201	0
0.823727	0
0.841253	0
0.85878	0
0.876306	0
0.893832	0
0.911358	0
0.928884	0
0.94641	0
0.963936	0
0.981462	0
0.998989	0
1.01651	0
1.03404	0
1.05157	0
1.06909	0
1.08662	0
1.10415	0
1.12167	0
1.1392	0
1.15672	0
1.17425	0
1.19178	0
1.2093	0
1.22683	0
1.24435	0
1.26188	0
1.27941	0
1.29693	0
1.31446	0
1.33198	0
1.34951	0
1.36704	0
1.38456	0
1.40209	0
1.41962	0
1.43714	0
1.45467	0
1.47219	0
1.48972	0
1.50725	0
1.52477	0
1.5423	0
1.55982	0
1.57735	0
-0.788675	0.0563913
-0.771149	0.0563913
-0.753623	0.0563913
-0.736097	0.0563913
-0.718571	0.0563913
-0.701045	0.0563913
-0.683518	0.0563913
-0.665992	0.0563913
-0.648466	0.0563913
-0.63094	0.0563913
-0.613414	0.0563913
-0.595888	0.0563913
-0.578362	0.0563913
-0.560836	0.0563913
-0.54331	0.0563913
-0.525783	0.0563913
-0.508257	0.0563913
-0.490731	0.0563913
-0.473205	0.0563913
-0.455679	0.0563913
-0.438153	0.0563913
-0.420627	0.0563913
-0.403101	0.0563913
-0.385575	0.0563913
-0.368048	0.0563913
-0.350522	0.0563913
-0.332996	0.0563913
-0.31547	0.0563913
-0.297944	0.0563913
-0.280418	0.0563913
-0.262892	0.0563913
-0.245366	0.0563913
-0.227839	0.0563913
-0.210313	0.0563913
-0.192787	0.0563913
-0.175261	0.0563913
-0.157735	0.0563913
-0.140209	0.0563913
-0.122683	0.0563913
-0.105157	0.0563913
-0.0876306	0.0563913
-0.0701045	0.0563913
-0.0525783	0.0563913
-0.0350522	0.0563913
-0.0175261	0.0563913
0	0.02
0.0144338	0.0445
0.0288675	0.069
0.0433013	0.0935
0.057735	0.118
0.0721688	0.1425
0.0866025	0.167
0.101036	0.1915
0.11547	0.216
0.129904	0.2405
0.144338	0.265
0.158771	0.2895
0.173205	0.314
0.187639	0.3385
0.202073	0.363
0.216506	0.3875
0.23094	0.412
0.245374	0.4365
0.259808	0.461
0.274241	0.4855
0.288675	0.51
0.308675	0.4904
0.328675	0.4708
0.348675	0.4512
0.368675	0.4316
0.388675	0.412
0.408675	0.3924
0.428675	0.3728
0.448675	0.3532
0.468675	0.3336
0.488675	0.314
0.508675	0.2944
0.528675	0.2748
0.548675	0.2552
0.568675	0.2356
0.588675	0.216
0.608675	0.1964
0.628675	0.1768
0.648675	0.1572
0.668675	0.1376
0.688675	0.118
0.708675	0.0984
0.728675	0.0788
0.748675	0.0592
0.768675	0.0396
0.788675	0.0563913
0.806201	0.0563913
0.823727	0.0563913
0.841253	0.0563913
0.85878	0.0563913
0.876306	0.0563913
0.893832	0.0563913
0.911358	0.0563913
0.928884	0.0563913
0.94641	0.0563913
0.963936	0.0563913
0.981462	0.0563913
0.998989	0.0563913
1.01651	0.0563913
1.03404	0.0563913
1.05157	0.0563913
1.06909	0.0563913
1.08662	0.0563913
1.10415	0.0563913
1.12167	0.0563913
1.1392	0.0563913
1.15672	0.0563913
1.17425	0.0563913
1.19178	0.0563913
1.2093	0.0563913
1.22683	0.0563913
1.24435	0.0563913
1.26188	0.0563913
1.27941	0.0563913
1.29693	0.0563913
1.31446	0.0563913
1.33198	0.0563913
1.34951	0.0563913
1.36704	0.0563913
1.38456	0.0563913
1.40209	0.0563913
1.41962	0.0563913
1.43714	0.0563913
1.45467	0.0563913
1.47219	0.0563913
1.48972	0.0563913
1.50725	0.0563913
1.52477	0.0563913
1.5423	0.0563913
1.55982	0.0563913
1.57735	0.0563913
-0.788675	0.108369
-0.771149	0.108369
-0.753623	0.108369
-0.736097	0.108369
-0.718571	0.108369
-0.701045	0.108369
-0.683518	0.108369
-0.665992	0.108369
-0.648466	0.108369
-0.63094	0.108369
-0.613414	0.108369
-0.595888	0.108369
-0.578362	0.108369
-0.560836	0.108369
-0.54331	0.108369
-0.525783	0.108369
-0.508257	0.108369
-0.490731	0.108369
-0.473205	0.108369
-0.455679	0.108369
-0.438153	0.108369
-0.420627	0.108369
-0.403101	0.108369
-0.385575	0.108369
-0.368048	0.108369
-0.350522	0.108369
-0.332996	0.108369
-0.31547	0.108369
-0.297944	0.108369
-0.280418	0.108369
-0.262892	0.108369
-0.245366	0.108369
-0.227839	0.108369
-0.210313	0.108369
-0.192787	0.108369
-0.175261	0.108369
-0.157735	0.108369
-0.140209	0.108369
-0.122683	0.108369
-0.105157	0.108369
-0.0876306	0.108369
-0.0701045	0.108369
-0.0525783	0.108369
-0.0350522	0.108369
-0.0175261	0.108369
0	0.04
0.0144338	0.064
0.0288675	0.088
0.0433013	0.112
0.057735	0.136
0.0721688	0.16
0.0866025	0.184
0.101036	0.208
0.11547	0.232
0.129904	0.256
0.144338	0.28
0.158771	0.304
0.173205	0.328
0.187639	0.352
0.202073	0.376
0.216506	0.4
0.23094	0.424
0.245374	0.448
0.259808	0.472
0.274241	0.496
0.288675	0.52
0.308675	0.5008
0.328675	0.4816
0.348675	0.4624
0.368675	0.4432
0.388675	0.424
0.408675	0.4048
0.428675	0.3856
0.448675	0.3664
0.468675	0.3472
0.488675	0.328
0.508675	0.3088
0.528675	0.2896
0.548675	0.2704
0.568675	0.2512
0.588675	0.232
0.608675	0.2128
0.628675	0.1936
0.648675	0.1744
0.668675	0.1552
0.688675	0.136
0.708675	0.1168
0.728675	0.0976
0.748675	0.0784
0.768675	0.0592
0.788675	0.108369
0.806201	0.108369
0.823727	0.108369
0.841253	0.108369
0.85878	0.108369
0.876306	0.108369
0.893832	0.108369
0.911358	0.108369
0.928884	0.108369
0.94641	0.108369
0.963936	0.108369
0.981462	0.108369
0.998989	0.108369
1.01651	0.108369
1.03404	0.108369
1.05157	0.108369
1.06909	0.108369
1.08662	0.108369
1.10415	0.108369
1.12167	0.108369
1.1392	0.108369
1.15672	0.108369
1.17425	0.108369
1.19178	0.108369
1.2093	0.108369
1.22683	0.108369
1.24435	0.108369
1.26188	0.108369
1.27941	0.108369
1.29693	0.108369
1.31446	0.108369
1.33198	0.108369
1.34951	0.108369
1.36704	0.108369
1.38456	0.108369
1.40209	0.108369
1.41962	0.108369
1.43714	0.108369
1.45467	0.108369
1.47219	0.108369
1.48972	0.108369
1.50725	0.108369
1.52477	0.108369
1.5423	0.108369
1.55982	0.108369
1.57735	0.108369
-0.788675	0.156112
-0.771149	0.156112
-0.753623	0.156112
-0.736097	0.156112
-0.718571	0.156112
-0.701045	0.156112
-0.683518	0.156112
-0.665992	0.156112
-0.648466	0.156112
-0.63094	0.156112
-0.613414	0.156112
-0.595888	0.156112
-0.578362	0.156112
-0.560836	0.156112
-0.54331	0.156112
-0.525783	0.156112
-0.508257	0.156112
-0.490731	0.156112
-0.473205	0.156112
-0.455679	0.156112
-0.438153	0.156112
-0.420627	0.156112
-0.403101	0.156112
-0.385575	0.156112
-0.368048	0.156112
-0.350522	0.156112
-0.332996	0.156112
-0.31547	0.156112
-0.297944	0.156112
-0.280418	0.156112
-0.262892	0.156112
-0.245366	0.156112
-0.227839	0.156112
-0.210313	0.156112
-0.192787	0.156112
-0.175261	0.156112
-0.157735	0.156112
-0.140209	0.156112
-0.122683	0.156112
-0.105157	0.156112
-0.0876306	0.156112
-0.0701045	0.156112
-0.0525783	0.156112
-0.0350522	0.156112
-0.0175261	0.156112
0	0.06
0.0144338	0.0835
0.0288675	0.107
0.0433013	0.1305
0.057735	0.154
0.0721688	0.1775
0.0866025	0.201
0.101036	0.2245
0.11547	0.248
0.129904	0.2715
0.144338	0.295
0.158771	0.3185
0.173205	0.342
0.187639	0.3655
0.202073	0.389
0.216506	0.4125
0.23094	0.436
0.245374	0.4595
0.259808	0.483
0.274241	0.5065
0.288675	0.53
0.308675	0.5112
0.328675	0.4924
0.348675	0.4736
0.368675	0.4548
0.388675	0.436
0.408675	0.4172
0.428675	0.3984
0.448675	0.3796
0.468675	0.3608
0.488675	0.342
0.508675	0.3232
0.528675	0.3044
0.548675	0.2856
0.568675	0.2668
0.588675	0.248
0.608675	0.2292
0.628675	0.2104
0.648675	0.1916
0.668675	0.1728
0.688675	0.154
0.708675	0.1352
0.728675	0.1164
0.748675	0.0976
0.768675	0.0788
0.788675	0.156112
0.806201	0.156112
0.823727	0.156112
0.841253	0.156112
0.85878	0.156112
0.876306	0.156112
0.893832	0.156112
0.911358	0.156112
0.928884	0.156112
0.94641	0.156112
0.963936	0.156112
0.981462	0.156112
0.998989	0.156112
1.01651	0.156112
1.03404	0.156112
1.05157	0.156112
1.06909	0.156112
1.08662	0.156112
1.10415	0.156112
1.12167	0.156112
1.1392	0.156112
1.15672	0.156112
1.17425	0.156112
1.19178	0.156112
1.2093	0.156112
1.22683	0.156112
1.24435	0.156112
1.26188	0.156112
1.27941	0.156112
1.29693	0.156112
1.31446	0.156112
1.33198	0.156112
1.34951	0.156112
1.36704	0.156112
1.38456	0.156112
1.40209	0.156112
1.41962	0.156112
1.43714	0.156112
1.45467	0.156112
1.47219	0.156112
1.48972	0.156112
1.50725	0.156112
1.52477	0.156112
1.5423	0.156112
1.55982	0.156112
1.57735	0.156112
-0.788675	0.199802
-0.771149	0.199802
-0.753623	0.199802
-0.736097	0.199802
-0.718571	0.199802
-0.701045	0.199802
-0.683518	0.199802
-0.665992	0.199802
-0.648466	0.199802
-0.63094	0.199802
-0.613414	0.199802
-0.595888	0.199802
-0.578362	0.199802
-0.560836	0.199802
-0.54331	0.199802
-0.525783	0.199802
-0.508257	0.199802
-0.490731	0.199802
-0.473205	0.199802
-0.455679	0.199802
-0.438153	0.199802
-0.420627	0.199802
-0.403101	0.199802
-0.385575	0.199802
-0.368048	0.199802
-0.350522	0.199802
-0.332996	0.199802
-0.31547	0.199802
-0.297944	0.199802
-0.280418	0.199802
-0.262892	0.199802
-0.245366	0.199802
-0.227839	0.199802
-0.210313	0.199802
-0.192787	0.199802
-0.175261	0.199802
-0.157735	0.199802
-0.140209	0.199802
-0.122683	0.199802
-0.105157	0.199802
-0.0876306	0.199802
-0.0701045	0.199802
-0.0525783	0.199802
-0.0350522	0.199802
-0.0175261	0.199802
0	0.08
0.0144338	0.103
0.0288675	0.126
0.0433013	0.149
0.057735	0.172
0.0721688	0.195
0.0866025	0.218
0.101036	0.241
0.11547	0.264
0.129904	0.287
0.144338	0.31
0.158771	0.333
0.173205	0.356
0.187639	0.379
0.202073	0.402
0.216506	0.425
0.23094	0.448
0.245374	0.471
0.259808	0.494
0.274241	0.517
0.288675	0.54
0.308675	0.5216
0.328675	0.5032
0.348675	0.4848
0.368675	0.4664
0.388675	0.448
0.408675	0.4296
0.428675	0.4112
0.448675	0.3928
0.468675	0.3744
0.488675	0.356
0.508675	0.3376
0.528675	0.3192
0.548675	0.3008
0.568675	0.2824
0.588675	0.264
0.608675	0.2456
0.628675	0.2272
0.648675	0.2088
0.668675	0.1904
0.688675	0.172
0.708675	0.1536
0.728675	0.1352
0.748675	0.1168
0.768675	0.0984
0.788675	0.199802
0.806201	0.199802
0.823727	0.199802
0.841253	0.199802
0.85878	0.199802
0.876306	0.199802
0.893832	0.199802
0.911358	0.199802
0.928884	0.199802
0.94641	0.199802
0.963936	0.199802
0.981462	0.199802
0.998989	0.199802
1.01651	0.199802
1.03404	0.199802
1.05157	0.199802
1.06909	0.199802
1.08662	0.199802
1.10415	0.199802
1.12167	0.199802
1.1392	0.199802
1.15672	0.199802
1.17425	0.199802
1.19178	0.199802
1.2093	0.199802
1.22683	0.199802
1.24435	0.199802
1.26188	0.199802
1.27941	0.199802
1.29693	0.199802
1.31446	0.199802
1.33198	0.199802
1.34951	0.199802
1.36704	0.199802
1.38456	0.199802
1.40209	0.199802
1.41962	0.199802
1.43714	0.199802
1.45467	0.199802
1.47219	0.199802
1.48972	0.199802
1.50725	0.199802
1.52477	0.199802
1.5423	0.199802
1.55982	0.199802
1.57735	0.199802
-0.788675	0.239618
-0.771149	0.239618
-0.753623	0.239618
-0.736097	0.239618
-0.718571	0.239618
-0.701045	0.239618
-0.683518	0.239618
-0.665992	0.239618
-0.648466	0.239618
-0.63094	0.239618
-0.613414	0.239618
-0.595888	0.239618
-0.578362	0.239618
-0.560836	0.239618
-0.54331	0.239618
-0.525783	0.239618
-0.508257	0.239618
-0.490731	0.239618
-0.473205	0.239618
-0.455679	0.239618
-0.438153	0.239618
-0.420627	0.239618
-0.403101	0.239618
-0.385575	0.239618
-0.368048	0.239618
-0.350522	0.239618
-0.332996	0.239618
-0.31547	0.239618
-0.297944	0.239618
-0.280418	0.239618
-0.262892	0.239618
-0.245366	0.239618
-0.227839	0.239618
-0.210313	0.239618
-0.192787	0.239618
-0.175261	0.239618
-0.157735	0.239618
-0.140209	0.239618
-0.122683	0.239618
-0.105157	0.239618
-0.0876306	0.239618
-0.0701045	0.239618
-0.0525783	0.239618
-0.0350522	0.239618
-0.0175261	0.239618
0	0.1
0.0144338	0.1225
0.0288675	0.145
0.0433013	0.1675
0.057735	0.19
0.0721688	0.2125
0.0866025	0.235
0.101036	0.2575
0.11547	0.28
0.129904	0.3025
0.144338	0.325
0.158771	0.3475
0.173205	0.37
0.187639	0.3925
0.202073	0.415
0.216506	0.4375
0.23094	0.46
0.245374	0.4825
0.259808	0.505
0.274241	0.5275
0.288675	0.55
0.308675	0.532
0.328675	0.514
0.348675	0.496
0.368675	0.478
0.388675	0.46
0.408675	0.442
0.428675	0.424
0.448675	0.406
0.468675	0.388
0.488675	0.37
0.508675	0.352
0.528675	0.334
0.548675	0.316
0.568675	0.298
0.588675	0.28
0.608675	0.262
0.628675	0.244
0.648675	0.226
0.668675	0.208
0.688675	0.19
0.708675	0.172
0.728675	0.154
0.748675	0.136
0.768675	0.118
0.788675	0.239618
0.806201	0.239618
0.823727	0.239618
0.841253	0.239618
0.85878	0.239618
0.876306	0.239618
0.893832	0.239618
0.911358	0.239618
0.928884	0.239618
0.94641	0.239618
0.963936	0.239618
0.981462	0.239618
0.998989	0.239618
1.01651	0.239618
1.03404	0.239618
1.05157	0.239618
1.06909	0.239618
1.08662	0.239618
1.10415	0.239618
1.12167	0.239618
1.1392	0.239618
1.15672	0.239618
1.17425	0.239618
1.19178	0.239618
1.2093	0.239618
1.22683	0.239618
1.24435	0.239618
1.26188	0.239618
1.27941	0.239618
1.29693	0.239618
1.31446	0.239618
1.33198	0.239618
1.34951	0.239618
1.36704	0.239618
1.38456	0.239618
1.40209	0.239618
1.41962	0.239618
1.43714	0.239618
1.45467	0.239618
1.47219	0.239618
1.48972	0.239618
1.50725	0.239618
1.52477	0.239618
1.5423	0.239618
1.55982	0.239618
1.57735	0.239618
-0.788675	0.275741
-0.771149	0.275741
-0.753623	0.275741
-0.736097	0.275741
-0.718571	0.275741
-0.701045	0.275741
-0.683518	0.275741
-0.665992	0.275741
-0.648466	0.275741
-0.63094	0.275741
-0.613414	0.275741
-0.595888	0.275741
-0.578362	0.275741
-0.560836	0.275741
-0.54331	0.275741
-0.525783	0.275741
-0.508257	0.275741
-0.490731	0.275741
-0.473205	0.275741
-0.455679	0.275741
-0.438153	0.275741
-0.420627	0.275741
-0.403101	0.275741
-0.385575	0.275741
-0.368048	0.275741
-0.350522	0.275741
-0.332996	0.275741
-0.31547	0.275741
-0.297944	0.275741
-0.280418	0.275741
-0.262892	0.275741
-0.245366	0.275741
-0.227839	0.275741
-0.210313	0.275741
-0.192787	0.275741
-0.175261	0.275741
-0.157735	0.275741
-0.140209	0.275741
-0.122683	0.275741
-0.105157	0.275741
-0.0876306	0.275741
-0.0701045	0.275741
-0.0525783	0.275741
-0.0350522	0.275741
-0.0175261	0.275741
0	0.12
0.0144338	0.142
0.0288675	0.164
0.0433013	0.186
0.057735	0.208
0.0721688	0.23
0.0866025	0.252
0.101036	0.274
0.11547	0.296
0.129904	0.318
0.144338	0.34
0.158771	0.362
0.173205	0.384
0.187639	0.406
0.202073	0.428
0.216506	0.45
0.23094	0.472
0.245374	0.494
0.259808	0.516
0.274241	0.538
0.288675	0.56
0.308675	0.5424
0.328675	0.5248
0.348675	0.5072
0.368675	0.4896
0.388675	0.472
0.408675	0.4544
0.428675	0.4368
0.448675	0.4192
0.468675	0.4016
0.488675	0.384
0.508675	0.3664
0.528675	0.3488
0.548675	0.3312
0.568675	0.3136
0.588675	0.296
0.608675	0.2784
0.628675	0.2608
0.648675	0.2432
0.668675	0.2256
0.688675	0.208
0.708675	0.1904
0.728675	0.1728
0.748675	0.1552
0.768675	0.1376
0.788675	0.275741
0.806201	0.275741
0.823727	0.275741
0.841253	0.275741
0.85878	0.275741
0.876306	0.275741
0.893832	0.275741
0.911358	0.275741
0.928884	0.275741
0.94641	0.275741
0.963936	0.275741
0.981462	0.275741
0.998989	0.275741
1.01651	0.275741
1.03404	0.275741
1.05157	0.275741
1.06909	0.275741
1.08662	0.275741
1.10415	0.275741
1.12167	0.275741
1.1392	0.275741
1.15672	0.275741
1.17425	0.275741
1.19178	0.275741
1.2093	0.275741
1.22683	0.275741
1.24435	0.275741
1.26188	0.275741
1.27941	0.275741
1.29693	0.275741
1.31446	0.275741
1.33198	0.275741
1.34951	0.275741
1.36704	0.275741
1.38456	0.275741
1.40209	0.275741
1.41962	0.275741
1.43714	0.275741
1.45467	0.275741
1.47219	0.275741
1.48972	0.275741
1.50725	0.275741
1.52477	0.275741
1.5423	0.275741
1.55982	0.275741
1.57735	0.275741
-0.788675	0.308351
-0.771149	0.308351
-0.753623	0.308351
-0.736097	0.308351
-0.718571	0.308351
-0.701045	0.308351
-0.683518	0.308351
-0.665992	0.308351
-0.648466	0.308351
-0.63094	0.308351
-0.613414	0.308351
-0.595888	0.308351
-0.578362	0.308351
-0.560836	0.308351
-0.54331	0.308351
-0.525783	0.308351
-0.508257	0.308351
-0.490731	0.308351
-0.473205	0.308351
-0.455679	0.308351
-0.438153	0.308351
-0.420627	0.308351
-0.403101	0.308351
-0.385575	0.308351
-0.368048	0.308351
-0.350522	0.308351
-0.332996	0.308351
-0.31547	0.308351
-0.297944	0.308351
-0.280418	0.308351
-0.262892	0.308351
-0.245366	0.308351
-0.227839	0.308351
-0.210313	0.308351
-0.192787	0.308351
-0.175261	0.308351
-0.157735	0.308351
-0.140209	0.308351
-0.122683	0.308351
-0.105157	0.308351
-0.0876306	0.308351
-0.0701045	0.308351
-0.0525783	0.308351
-0.0350522	0.308351
-0.0175261	0.308351
0	0.14
0.0144338	0.1615
0.0288675	0.183
0.0433013	0.2045
0.057735	0.226
0.0721688	0.2475
0.0866025	0.269
0.101036	0.2905
0.11547	0.312
0.129904	0.3335
0.144338	0.355
0.158771	0.3765
0.173205	0.398
0.187639	0.4195
0.202073	0.441
0.216506	0.4625
0.23094	0.484
0.245374	0.5055
0.259808	0.527
0.274241	0.5485
0.288675	0.57
0.308675	0.5528
0.328675	0.5356
0.348675	0.5184
0.368675	0.5012
0.388675	0.484
0.408675	0.4668
0.428675	0.4496
0.448675	0.4324
0.468675	0.4152
0.488675	0.398
0.508675	0.3808
0.528675	0.3636
0.548675	0.3464
0.568675	0.3292
0.588675	0.312
0.608675	0.2948
0.628675	0.2776
0.648675	0.2604
0.668675	0.2432
0.688675	0.226
0.708675	0.2088
0.728675	0.1916
0.748675	0.1744
0.768675	0.1572
0.788675	0.308351
0.806201	0.308351
0.823727	0.308351
0.841253	0.308351
0.85878	0.308351
0.876306	0.308351
0.893832	0.308351
0.911358	0.308351
0.928884	0.308351
0.94641	0.308351
0.963936	0.308351
0.981462	0.308351
0.998989	0.308351
1.01651	0.308351
1.03404	0.308351
1.05157	0.308351
1.06909	0.308351
1.08662	0.308351
1.10415	0.308351
1.12167	0.308351
1.1392	0.308351
1.15672	0.308351
1.17425	0.308351
1.19178	0.308351
1.2093	0.308351
1.22683	0.308351
1.24435	0.308351
1.26188	0.308351
1.27941	0.308351
1.29693	0.308351
1.31446	0.308351
1.33198	0.308351
1.34951	0.308351
1.36704	0.308351
1.38456	0.308351
1.40209	0.308351
1.41962	0.308351
1.43714	0.308351
1.45467	0.308351
1.47219	0.308351
1.48972	0.308351
1.50725	0.308351
1.52477	0.308351
1.5423	0.308351
1.55982	0.308351
1.57735	0.308351
-0.788675	0.337627
-0.771149	0.337627
-0.753623	0.337627
-0.736097	0.337627
-0.718571	0.337627
-0.701045	0.337627
-0.683518	0.337627
-0.665992	0.337627
-0.648466	0.337627
-0.63094	0.337627
-0.613414	0.337627
-0.595888	0.337627
-0.578362	0.337627
-0.560836	0.337627
-0.54331	0.337627
-0.525783	0.337627
-0.508257	0.337627
-0.490731	0.337627
-0.473205	0.337627
-0.455679	0.337627
-0.438153	0.337627
-0.420627	0.337627
-0.403101	0.337627
-0.385575	0.337627
-0.368048	0.337627
-0.350522	0.337627
-0.332996	0.337627
-0.31547	0.337627
-0.297944	0.337627
-0.280418	0.337627
-0.262892	0.337627
-0.245366	0.337627
-0.227839	0.337627
-0.210313	0.337627
-0.192787	0.337627
-0.175261	0.337627
-0.157735	0.337627
-0.140209	0.337627
-0.122683	0.337627
-0.105157	0.337627
-0.0876306	0.337627
-0.0701045	0.337627
-0.0525783	0.337627
-0.0350522	0.337627
-0.0175261	0.337627
0	0.16
0.0144338	0.181
0.0288675	0.202
0.0433013	0.223
0.057735	0.244
0.0721688	0.265
0.0866025	0.286
0.101036	0.307
0.11547	0.328
0.129904	0.349
0.144338	0.37
0.158771	0.391
0.173205	0.412
0.187639	0.433
0.202073	0.454
0.216506	0.475
0.23094	0.496
0.245374	0.517
0.259808	0.538
0.274241	0.559
0.288675	0.58
0.308675	0.5632
0.328675	0.5464
0.348675	0.5296
0.368675	0.5128
0.388675	0.496
0.408675	0.4792
0.428675	0.4624
0.448675	0.4456
0.468675	0.4288
0.488675	0.412
0.508675	0.3952
0.528675	0.3784
0.548675	0.3616
0.568675	0.3448
0.588675	0.328
0.608675	0.3112
0.628675	0.2944
0.648675	0.2776
0.668675	0.2608
0.688675	0.244
0.708675	0.2272
0.728675	0.2104
0.748675	0.1936
0.768675	0.1768
0.788675	0.337627
0.806201	0.337627
0.823727	0.337627
0.841253	0.337627
0.85878	0.337627
0.876306	0.337627
0.893832	0.337627
0.911358	0.337627
0.928884	0.337627
0.94641	0.337627
0.963936	0.337627
0.981462	0.337627
0.998989	0.337627
1.01651	0.337627
1.03404	0.337627
1.05157	0.337627
1.06909	0.337627
1.08662	0.337627
1.10415	0.337627
1.12167	0.337627
1.1392	0.337627
1.15672	0.337627
1.17425	0.337627
1.19178	0.337627
1.2093	0.337627
1.22683	0.337627
1.24435	0.337627
1.26188	0.337627
1.27941	0.337627
1.29693	0.337627
1.31446	0.337627
1.33198	0.337627
1.34951	0.337627
1.36704	0.337627
1.38456	0.337627
1.40209	0.337627
1.41962	0.337627
1.43714	0.337627
1.45467	0.337627
1.47219	0.337627
1.48972	0.337627
1.50725	0.337627
1.52477	0.337627
1.5423	0.337627
1.55982	0.337627
1.57735	0.337627
-0.788675	0.363751
-0.771149	0.363751
-0.753623	0.363751
-0.736097	0.363751
-0.718571	0.363751
-0.701045	0.363751
-0.683518	0.363751
-0.665992	0.363751
-0.648466	0.363751
-0.63094	0.363751
-0.613414	0.363751
-0.595888	0.363751
-0.578362	0.363751
-0.560836	0.363751
-0.54331	0.363751
-0.525783	0.363751
-0.508257	0.363751
-0.490731	0.363751
-0.473205	0.363751
-0.455679	0.363751
-0.438153	0.363751
-0.420627	0.363751
-0.403101	0.363751
-0.385575	0.363751
-0.368048	0.363751
-0.350522	0.363751
-0.332996	0.363751
-0.31547	0.363751
-0.297944	0.363751
-0.280418	0.363751
-0.262892	0.363751
-0.245366	0.363751
-0.227839	0.363751
-0.210313	0.363751
-0.192787	0.363751
-0.175261	0.363751
-0.157735	0.363751
-0.140209	0.363751
-0.122683	0.363751
-0.105157	0.363751
-0.0876306	0.363751
-0.0701045	0.363751
-0.0525783	0.363751
-0.0350522	0.363751
-0.0175261	0.363751
0	0.18
0.0144338	0.2005
0.0288675	0.221
0.0433013	0.2415
0.057735	0.262
0.0721688	0.2825
0.0866025	0.303
0.101036	0.3235
0.11547	0.344
0.129904	0.3645
0.144338	0.385
0.158771	0.4055
0.173205	0.426
0.187639	0.4465
0.202073	0.467
0.216506	0.4875
0.23094	0.508
0.245374	0.5285
0.259808	0.549
0.274241	0.5695
0.288675	0.59
0.308675	0.5736
0.328675	0.5572
0.348675	0.5408
0.368675	0.5244
0.388675	0.508
0.408675	0.4916
0.428675	0.4752
0.448675	0.4588
0.468675	0.4424
0.488675	0.426
0.508675	0.4096
0.528675	0.3932
0.548675	0.3768
0.568675	0.3604
0.588675	0.344
0.608675	0.3276
0.628675	0.3112
0.648675	0.2948
0.668675	0.2784
0.688675	0.262
0.708675	0.2456
0.728675	0.2292
0.748675	0.2128
0.768675	0.1964
0.788675	0.363751
0.806201	0.363751
0.823727	0.363751
0.841253	0.363751
0.85878	0.363751
0.876306	0.363751
0.893832	0.363751
0.911358	0.363751
0.928884	0.363751
0.94641	0.363751
0.963936	0.363751
0.981462	0.363751
0.998989	0.363751
1.01651	0.363751
1.03404	0.363751
1.05157	0.363751
1.06909	0.363751
1.08662	0.363751
1.10415	0.363751
1.12167	0.363751
1.1392	0.363751
1.15672	0.363751
1.17425	0.363751
1.19178	0.363751
1.2093	0.363751
1.22683	0.363751
1.24435	0.363751
1.26188	0.363751
1.27941	0.363751
1.29693	0.363751
1.31446	0.363751
1.33198	0.363751
1.34951	0.363751
1.36704	0.363751
1.38456	0.363751
1.40209	0.363751
1.41962	0.363751
1.43714	0.363751
1.45467	0.363751
1.47219	0.363751
1.48972	0.363751
1.50725	0.363751
1.52477	0.363751
1.5423	0.363751
1.55982	0.363751
1.57735	0.363751
-0.788675	0.386902
-0.771149	0.386902
-0.753623	0.386902
-0.736097	0.386902
-0.718571	0.386902
-0.701045	0.386902
-0.683518	0.386902
-0.665992	0.386902
-0.648466	0.386902
-0.63094	0.386902
-0.613414	0.386902
-0.595888	0.386902
-0.578362	0.386902
-0.560836	0.386902
-0.54331	0.386902
-0.525783	0.386902
-0.508257	0.386902
-0.490731	0.386902
-0.473205	0.386902
-0.455679	0.386902
-0.438153	0.386902
-0.420627	0.386902
-0.403101	0.386902
-0.385575	0.386902
-0.368048	0.386902
-0.350522	0.386902
-0.332996	0.386902
-0.31547	0.386902
-0.297944	0.386902
-0.280418	0.386902
-0.262892	0.386902
-0.245366	0.386902
-0.227839	0.386902
-0.210313	0.386902
-0.192787	0.386902
-0.175261	0.386902
-0.157735	0.386902
-0.140209	0.386902
-0.122683	0.386902
-0.105157	0.386902
-0.0876306	0.386902
-0.0701045	0.386902
-0.0525783	0.386902
-0.0350522	0.386902
-0.0175261	0.386902
0	0.2
0.0144338	0.22
0.0288675	0.24
0.0433013	0.26
0.057735	0.28
0.0721688	0.3
0.0866025	0.32
0.101036	0.34
0.11547	0.36
0.129904	0.38
0.144338	0.4
0.158771	0.42
0.173205	0.44
0.187639	0.46
0.202073	0.48
0.216506	0.5
0.23094	0.52
0.245374	0.54
0.259808	0.56
0.274241	0.58
0.288675	0.6
0.308675	0.584
0.328675	0.568
0.348675	0.552
0.368675	0.536
0.388675	0.52
0.408675	0.504
0.428675	0.488
0.448675	0.472
0.468675	0.456
0.488675	0.44
0.508675	0.424
0.528675	0.408
0.548675	0.392
0.568675	0.376
0.588675	0.36
0.608675	0.344
0.628675	0.328
0.648675	0.312
0.668675	0.296
0.688675	0.28
0.708675	0.264
0.728675	0.248
0.748675	0.232
0.768675	0.216
0.788675	0.386902
0.806201	0.386902
0.823727	0.386902
0.841253	0.386902
0.85878	0.386902
0.876306	0.386902
0.893832	0.386902
0.911358	0.386902
0.928884	0.386902
0.94641	0.386902
0.963936	0.386902
0.981462	0.386902
0.998989	0.386902
1.01651	0.386902
1.03404	0.386902
1.05157	0.386902
1.06909	0.386902
1.08662	0.386902
1.10415	0.386902
1.12167	0.386902
1.1392	0.386902
1.15672	0.386902
1.17425	0.386902
1.19178	0.386902
1.2093	0.386902
1.22683	0.386902
1.24435	0.386902
1.26188	0.386902
1.27941	0.386902
1.29693	0.386902
1.31446	0.386902
1.33198	0.386902
1.34951	0.386902
1.36704	0.386902
1.38456	0.386902
1.40209	0.386902
1.41962	0.386902
1.43714	0.386902
1.45467	0.386902
1.47219	0.386902
1.48972	0.386902
1.50725	0.386902
1.52477	0.386902
1.5423	0.386902
1.55982	0.386902
1.57735	0.386902
-0.788675	0.407261
-0.771149	0.407261
-0.753623	0.407261
-0.736097	0.407261
-0.718571	0.407261
-0.701045	0.407261
-0.683518	0.407261
-0.665992	0.407261
-0.648466	0.407261
-0.63094	0.407261
-0.613414	0.407261
-0.595888	0.407261
-0.578362	0.407261
-0.560836	0.407261
-0.54331	0.407261
-0.525783	0.407261
-0.508257	0.407261
-0.490731	0.407261
-0.473205	0.407261
-0.455679	0.407261
-0.438153	0.407261
-0.420627	0.407261
-0.403101	0.407261
-0.385575	0.407261
-0.368048	0.407261
-0.350522	0.407261
-0.332996	0.407261
-0.31547	0.407261
-0.297944	0.407261
-0.280418	0.407261
-0.262892	0.407261
-0.245366	0.407261
-0.227839	0.407261
-0.210313	0.407261
-0.192787	0.407261
-0.175261	0.407261
-0.157735	0.407261
-0.140209	0.407261
-0.122683	0.407261
-0.105157	0.407261
-0.0876306	0.407261
-0.0701045	0.407261
-0.0525783	0.407261
-0.0350522	0.407261
-0.0175261	0.407261
0	0.22
0.0144338	0.2395
0.0288675	0.259
0.0433013	0.2785
0.057735	0.298
0.0721688	0.3175
0.0866025	0.337
0.101036	0.3565
0.11547	0.376
0.129904	0.3955
0.144338	0.415
0.158771	0.4345
0.173205	0.454
0.187639	0.4735
0.202073	0.493
0.216506	0.5125
0.23094	0.532
0.245374	0.5515
0.259808	0.571
0.274241	0.5905
0.288675	0.61
0.308675	0.5944
0.328675	0.5788
0.348675	0.5632
0.368675	0.5476
0.388675	0.532
0.408675	0.5164
0.428675	0.5008
0.448675	0.4852
0.468675	0.4696
0.488675	0.454
0.508675	0.4384
0.528675	0.4228
0.548675	0.4072
0.568675	0.3916
0.588675	0.376
0.608675	0.3604
0.628675	0.3448
0.648675	0.3292
0.668675	0.3136
0.688675	0.298
0.708675	0.2824
0.728675	0.2668
0.748675	0.2512
0.768675	0.2356
0.788675	0.407261
0.806201	0.407261
0.823727	0.407261
0.841253	0.407261
0.85878	0.407261
0.876306	0.407261
0.893832	0.407261
0.911358	0.407261
0.928884	0.407261
0.94641	0.407261
0.963936	0.407261
0.981462	0.407261
0.998989	0.407261
1.01651	0.407261
1.03404	0.407261
1.05157	0.407261
1.06909	0.407261
1.08662	0.407261
1.10415	0.407261
1.12167	0.407261
1.1392	0.407261
1.15672	0.407261
1.17425	0.407261
1.19178	0.407261
1.2093	0.407261
1.22683	0.407261
1.24435	0.407261
1.26188	0.407261
1.27941	0.407261
1.29693	0.407261
1.31446	0.407261
1.33198	0.407261
1.34951	0.407261
1.36704	0.407261
1.38456	0.407261
1.40209	0.407261
1.41962	0.407261
1.43714	0.407261
1.45467	0.407261
1.47219	0.407261
1.48972	0.407261
1.50725	0.407261
1.52477	0.407261
1.5423	0.407261
1.55982	0.407261
1.57735	0.407261
-0.788675	0.425007
-0.771149	0.425007
-0.753623	0.425007
-0.736097	0.425007
-0.718571	0.425007
-0.701045	0.425007
-0.683518	0.425007
-0.665992	0.425007
-0.648466	0.425007
-0.63094	0.425007
-0.613414	0.425007
-0.595888	0.425007
-0.578362	0.425007
-0.560836	0.425007
-0.54331	0.425007
-0.525783	0.425007
-0.508257	0.425007
-0.490731	0.425007
-0.473205	0.425007
-0.455679	0.425007
-0.438153	0.425007
-0.420627	0.425007
-0.403101	0.425007
-0.385575	0.425007
-0.368048	0.425007
-0.350522	0.425007
-0.332996	0.425007
-0.31547	0.425007
-0.297944	0.425007
-0.280418	0.425007
-0.262892	0.425007
-0.245366	0.425007
-0.227839	0.425007
-0.210313	0.425007
-0.192787	0.425007
-0.175261	0.425007
-0.157735	0.425007
-0.140209	0.425007
-0.122683	0.425007
-0.105157	0.425007
-0.0876306	0.425007
-0.0701045	0.425007
-0.0525783	0.425007
-0.0350522	0.425007
-0.0175261	0.425007
0	0.24
0.0144338	0.259
0.0288675	0.278
0.0433013	0.297
0.057735	0.316
0.0721688	0.335
0.0866025	0.354
0.101036	0.373
0.11547	0.392
0.129904	0.411
0.144338	0.43
0.158771	0.449
0.173205	0.468
0.187639	0.487
0.202073	0.506
0.216506	0.525
0.23094	0.544
0.245374	0.563
0.259808	0.582
0.274241	0.601
0.288675	0.62
0.308675	0.6048
0.328675	0.5896
0.348675	0.5744
0.368675	0.5592
0.388675	0.544
0.408675	0.5288
0.428675	0.5136
0.448675	0.4984
0.468675	0.4832
0.488675	0.468
0.508675	0.4528
0.528675	0.4376
0.548675	0.4224
0.568675	0.4072
0.588675	0.392
0.608675	0.3768
0.628675	0.3616
0.648675	0.3464
0.668675	0.3312
0.688675	0.316
0.708675	0.3008
0.728675	0.2856
0.748675	0.2704
0.768675	0.2552
0.788675	0.425007
0.806201	0.425007
0.823727	0.425007
0.841253	0.425007
0.85878	0.425007
0.876306	0.425007
0.893832	0.425007
0.911358	0.425007
0.928884	0.425007
0.94641	0.425007
0.963936	0.425007
0.981462	0.425007
0.998989	0.425007
1.01651	0.425007
1.03404	0.425007
1.05157	0.425007
1.06909	0.425007
1.08662	0.425007
1.10415	0.425007
1.12167	0.425007
1.1392	0.425007
1.15672	0.425007
1.17425	0.425007
1.19178	0.425007
1.2093	0.425007
1.22683	0.425007
1.24435	0.425007
1.26188	0.425007
1.27941	0.425007
1.29693	0.425007
1.31446	0.425007
1.33198	0.425007
1.34951	0.425007
1.36704	0.425007
1.38456	0.425007
1.40209	0.425007
1.41962	0.425007
1.43714	0.425007
1.45467	0.425007
1.47219	0.425007
1.48972	0.425007
1.50725	0.425007
1.52477	0.425007
1.5423	0.425007
1.55982	0.425007
1.57735	0.425007
-0.788675	0.440321
-0.771149	0.440321
-0.753623	0.440321
-0.736097	0.440321
-0.718571	0.440321
-0.701045	0.440321
-0.683518	0.440321
-0.665992	0.440321
-0.648466	0.440321
-0.63094	0.440321
-0.613414	0.440321