VARIABLES = "X", "Y"
ZONE N=100, E=50, F=FEPOINT, ET=TRIANGLE
0 0
2 0
0 2
2 2
0 2
2 2
0 4
2 4
0 4
2 4
0 6
2 6
0 6
2 6
0 8
2 8
0 8
2 8
0 10
2 10
2 0
4 0
2 2
4 2
2 2
4 2
2 4
4 4
2 4
4 4
2 6
4 6
2 6
4 6
2 8
4 8
2 8
4 8
2 10
4 10
4 0
6 0
4 2
6 2
4 2
6 2
4 4
6 4
4 4
6 4
4 6
6 6
4 6
6 6
4 8
6 8
4 8
6 8
4 10
6 10
6 0
8 0
6 2
8 2
6 2
8 2
6 4
8 4
6 4
8 4
6 6
8 6
6 6
8 6
6 8
8 8
6 8
8 8
6 10
8 10
8 0
10 0
8 2
10 2
8 2
10 2
8 4
10 4
8 4
10 4
8 6
10 6
8 6
10 6
8 8
10 8
8 8
10 8
8 10
10 10
1 2 6
2 7 6
6 7 11
7 12 11
11 12 16
12 17 16
16 17 21
17 22 21
21 22 26
22 27 26
2 3 7
3 8 7
7 8 12
8 13 12
12 13 17
13 18 17
17 18 22
18 23 22
22 23 27
23 28 27
3 4 8
4 9 8
8 9 13
9 14 13
13 14 18
14 19 18
18 19 23
19 24 23
23 24 28
24 29 28
4 5 9
5 10 9
9 10 14
10 15 14
14 15 19
15 20 19
19 20 24
20 25 24
24 25 29
25 30 29
5 6 10
6 11 10
10 11 15
11 16 15
15 16 20
16 21 20
20 21 25
21 26 25
25 26 30
26 31 30
