VARIABLES = X Y
ZONE I = 61, J = 41, F = POINT
0.5	0
0.504811	0.00833333
0.509623	0.0166667
0.514434	0.025
0.519245	0.0333333
0.524056	0.0416667
0.528868	0.05
0.533679	0.0583333
0.53849	0.0666667
0.543301	0.075
0.548113	0.0833333
0.552924	0.0916667
0.557735	0.1
0.562546	0.108333
0.567358	0.116667
0.572169	0.125
0.57698	0.133333
0.581791	0.141667
0.586603	0.15
0.591414	0.158333
0.596225	0.166667
0.601036	0.175
0.605848	0.183333
0.610659	0.191667
0.61547	0.2
0.620281	0.208333
0.625093	0.216667
0.629904	0.225
0.634715	0.233333
0.639526	0.241667
0.644338	0.25
0.649149	0.258333
0.65396	0.266667
0.658771	0.275
0.663583	0.283333
0.668394	0.291667
0.673205	0.3
0.678016	0.308333
0.682828	0.316667
0.687639	0.325
0.69245	0.333333
0.697261	0.341667
0.702073	0.35
0.706884	0.358333
0.711695	0.366667
0.716506	0.375
0.721318	0.383333
0.726129	0.391667
0.73094	0.4
0.735751	0.408333
0.740563	0.416667
0.745374	0.425
0.750185	0.433333
0.754996	0.441667
0.759808	0.45
0.764619	0.458333
0.76943	0.466667
0.774241	0.475
0.779053	0.483333
0.783864	0.491667
0.788675	0.5
0.5	0.025
0.504811	0.033125
0.509623	0.04125
0.514434	0.049375
0.519245	0.0575
0.524056	0.065625
0.528868	0.07375
0.533679	0.081875
0.53849	0.09
0.543301	0.098125
0.548113	0.10625
0.552924	0.114375
0.557735	0.1225
0.562546	0.130625
0.567358	0.13875
0.572169	0.146875
0.57698	0.155
0.581791	0.163125
0.586603	0.17125
0.591414	0.179375
0.596225	0.1875
0.601036	0.195625
0.605848	0.20375
0.610659	0.211875
0.61547	0.22
0.620281	0.228125
0.625093	0.23625
0.629904	0.244375
0.634715	0.2525
0.639526	0.260625
0.644338	0.26875
0.649149	0.276875
0.65396	0.285
0.658771	0.293125
0.663583	0.30125
0.668394	0.309375
0.673205	0.3175
0.678016	0.325625
0.682828	0.33375
0.687639	0.341875
0.69245	0.35
0.697261	0.358125
0.702073	0.36625
0.706884	0.374375
0.711695	0.3825
0.716506	0.390625
0.721318	0.39875
0.726129	0.406875
0.73094	0.415
0.735751	0.423125
0.740563	0.43125
0.745374	0.439375
0.750185	0.4475
0.754996	0.455625
0.759808	0.46375
0.764619	0.471875
0.76943	0.48
0.774241	0.488125
0.779053	0.49625
0.783864	0.504375
0.788675	0.5125
0.5	0.05
0.504811	0.0579167
0.509623	0.0658333
0.514434	0.07375
0.519245	0.0816667
0.524056	0.0895833
0.528868	0.0975
0.533679	0.105417
0.53849	0.113333
0.543301	0.12125
0.548113	0.129167
0.552924	0.137083
0.557735	0.145
0.562546	0.152917
0.567358	0.160833
0.572169	0.16875
0.57698	0.176667
0.581791	0.184583
0.586603	0.1925
0.591414	0.200417
0.596225	0.208333
0.601036	0.21625
0.605848	0.224167
0.610659	0.232083
0.61547	0.24
0.620281	0.247917
0.625093	0.255833
0.629904	0.26375
0.634715	0.271667
0.639526	0.279583
0.644338	0.2875
0.649149	0.295417
0.65396	0.303333
0.658771	0.31125
0.663583	0.319167
0.668394	0.327083
0.673205	0.335
0.678016	0.342917
0.682828	0.350833
0.687639	0.35875
0.69245	0.366667
0.697261	0.374583
0.702073	0.3825
0.706884	0.390417
0.711695	0.398333
0.716506	0.40625
0.721318	0.414167
0.726129	0.422083
0.73094	0.43
0.735751	0.437917
0.740563	0.445833
0.745374	0.45375
0.750185	0.461667
0.754996	0.469583
0.759808	0.4775
0.764619	0.485417
0.76943	0.493333
0.774241	0.50125
0.779053	0.509167
0.783864	0.517083
0.788675	0.525
0.5	0.075
0.504811	0.0827083
0.509623	0.0904167
0.514434	0.098125
0.519245	0.105833
0.524056	0.113542
0.528868	0.12125
0.533679	0.128958
0.53849	0.136667
0.543301	0.144375
0.548113	0.152083
0.552924	0.159792
0.557735	0.1675
0.562546	0.175208
0.567358	0.182917
0.572169	0.190625
0.57698	0.198333
0.581791	0.206042
0.586603	0.21375
0.591414	0.221458
0.596225	0.229167
0.601036	0.236875
0.605848	0.244583
0.610659	0.252292
0.61547	0.26
0.620281	0.267708
0.625093	0.275417
0.629904	0.283125
0.634715	0.290833
0.639526	0.298542
0.644338	0.30625
0.649149	0.313958
0.65396	0.321667
0.658771	0.329375
0.663583	0.337083
0.668394	0.344792
0.673205	0.3525
0.678016	0.360208
0.682828	0.367917
0.687639	0.375625
0.69245	0.383333
0.697261	0.391042
0.702073	0.39875
0.706884	0.406458
0.711695	0.414167
0.716506	0.421875
0.721318	0.429583
0.726129	0.437292
0.73094	0.445
0.735751	0.452708
0.740563	0.460417
0.745374	0.468125
0.750185	0.475833
0.754996	0.483542
0.759808	0.49125
0.764619	0.498958
0.76943	0.506667
0.774241	0.514375
0.779053	0.522083
0.783864	0.529792
0.788675	0.5375
0.5	0.1
0.504811	0.1075
0.509623	0.115
0.514434	0.1225
0.519245	0.13
0.524056	0.1375
0.528868	0.145
0.533679	0.1525
0.53849	0.16
0.543301	0.1675
0.548113	0.175
0.552924	0.1825
0.557735	0.19
0.562546	0.1975
0.567358	0.205
0.572169	0.2125
0.57698	0.22
0.581791	0.2275
0.586603	0.235
0.591414	0.2425
0.596225	0.25
0.601036	0.2575
0.605848	0.265
0.610659	0.2725
0.61547	0.28
0.620281	0.2875
0.625093	0.295
0.629904	0.3025
0.634715	0.31
0.639526	0.3175
0.644338	0.325
0.649149	0.3325
0.65396	0.34
0.658771	0.3475
0.663583	0.355
0.668394	0.3625
0.673205	0.37
0.678016	0.3775
0.682828	0.385
0.687639	0.3925
0.69245	0.4
0.697261	0.4075
0.702073	0.415
0.706884	0.4225
0.711695	0.43
0.716506	0.4375
0.721318	0.445
0.726129	0.4525
0.73094	0.46
0.735751	0.4675
0.740563	0.475
0.745374	0.4825
0.750185	0.49
0.754996	0.4975
0.759808	0.505
0.764619	0.5125
0.76943	0.52
0.774241	0.5275
0.779053	0.535
0.783864	0.5425
0.788675	0.55
0.5	0.125
0.504811	0.132292
0.509623	0.139583
0.514434	0.146875
0.519245	0.154167
0.524056	0.161458
0.528868	0.16875
0.533679	0.176042
0.53849	0.183333
0.543301	0.190625
0.548113	0.197917
0.552924	0.205208
0.557735	0.2125
0.562546	0.219792
0.567358	0.227083
0.572169	0.234375
0.57698	0.241667
0.581791	0.248958
0.586603	0.25625
0.591414	0.263542
0.596225	0.270833
0.601036	0.278125
0.605848	0.285417
0.610659	0.292708
0.61547	0.3
0.620281	0.307292
0.625093	0.314583
0.629904	0.321875
0.634715	0.329167
0.639526	0.336458
0.644338	0.34375
0.649149	0.351042
0.65396	0.358333
0.658771	0.365625
0.663583	0.372917
0.668394	0.380208
0.673205	0.3875
0.678016	0.394792
0.682828	0.402083
0.687639	0.409375
0.69245	0.416667
0.697261	0.423958
0.702073	0.43125
0.706884	0.438542
0.711695	0.445833
0.716506	0.453125
0.721318	0.460417
0.726129	0.467708
0.73094	0.475
0.735751	0.482292
0.740563	0.489583
0.745374	0.496875
0.750185	0.504167
0.754996	0.511458
0.759808	0.51875
0.764619	0.526042
0.76943	0.533333
0.774241	0.540625
0.779053	0.547917
0.783864	0.555208
0.788675	0.5625
0.5	0.15
0.504811	0.157083
0.509623	0.164167
0.514434	0.17125
0.519245	0.178333
0.524056	0.185417
0.528868	0.1925
0.533679	0.199583
0.53849	0.206667
0.543301	0.21375
0.548113	0.220833
0.552924	0.227917
0.557735	0.235
0.562546	0.242083
0.567358	0.249167
0.572169	0.25625
0.57698	0.263333
0.581791	0.270417
0.586603	0.2775
0.591414	0.284583
0.596225	0.291667
0.601036	0.29875
0.605848	0.305833
0.610659	0.312917
0.61547	0.32
0.620281	0.327083
0.625093	0.334167
0.629904	0.34125
0.634715	0.348333
0.639526	0.355417
0.644338	0.3625
0.649149	0.369583
0.65396	0.376667
0.658771	0.38375
0.663583	0.390833
0.668394	0.397917
0.673205	0.405
0.678016	0.412083
0.682828	0.419167
0.687639	0.42625
0.69245	0.433333
0.697261	0.440417
0.702073	0.4475
0.706884	0.454583
0.711695	0.461667
0.716506	0.46875
0.721318	0.475833
0.726129	0.482917
0.73094	0.49
0.735751	0.497083
0.740563	0.504167
0.745374	0.51125
0.750185	0.518333
0.754996	0.525417
0.759808	0.5325
0.764619	0.539583
0.76943	0.546667
0.774241	0.55375
0.779053	0.560833
0.783864	0.567917
0.788675	0.575
0.5	0.175
0.504811	0.181875
0.509623	0.18875
0.514434	0.195625
0.519245	0.2025
0.524056	0.209375
0.528868	0.21625
0.533679	0.223125
0.53849	0.23
0.543301	0.236875
0.548113	0.24375
0.552924	0.250625
0.557735	0.2575
0.562546	0.264375
0.567358	0.27125
0.572169	0.278125
0.57698	0.285
0.581791	0.291875
0.586603	0.29875
0.591414	0.305625
0.596225	0.3125
0.601036	0.319375
0.605848	0.32625
0.610659	0.333125
0.61547	0.34
0.620281	0.346875
0.625093	0.35375
0.629904	0.360625
0.634715	0.3675
0.639526	0.374375
0.644338	0.38125
0.649149	0.388125
0.65396	0.395
0.658771	0.401875
0.663583	0.40875
0.668394	0.415625
0.673205	0.4225
0.678016	0.429375
0.682828	0.43625
0.687639	0.443125
0.69245	0.45
0.697261	0.456875
0.702073	0.46375
0.706884	0.470625
0.711695	0.4775
0.716506	0.484375
0.721318	0.49125
0.726129	0.498125
0.73094	0.505
0.735751	0.511875
0.740563	0.51875
0.745374	0.525625
0.750185	0.5325
0.754996	0.539375
0.759808	0.54625
0.764619	0.553125
0.76943	0.56
0.774241	0.566875
0.779053	0.57375
0.783864	0.580625
0.788675	0.5875
0.5	0.2
0.504811	0.206667
0.509623	0.213333
0.514434	0.22
0.519245	0.226667
0.524056	0.233333
0.528868	0.24
0.533679	0.246667
0.53849	0.253333
0.543301	0.26
0.548113	0.266667
0.552924	0.273333
0.557735	0.28
0.562546	0.286667
0.567358	0.293333
0.572169	0.3
0.57698	0.306667
0.581791	0.313333
0.586603	0.32
0.591414	0.326667
0.596225	0.333333
0.601036	0.34
0.605848	0.346667
0.610659	0.353333
0.61547	0.36
0.620281	0.366667
0.625093	0.373333
0.629904	0.38
0.634715	0.386667
0.639526	0.393333
0.644338	0.4
0.649149	0.406667
0.65396	0.413333
0.658771	0.42
0.663583	0.426667
0.668394	0.433333
0.673205	0.44
0.678016	0.446667
0.682828	0.453333
0.687639	0.46
0.69245	0.466667
0.697261	0.473333
0.702073	0.48
0.706884	0.486667
0.711695	0.493333
0.716506	0.5
0.721318	0.506667
0.726129	0.513333
0.73094	0.52
0.735751	0.526667
0.740563	0.533333
0.745374	0.54
0.750185	0.546667
0.754996	0.553333
0.759808	0.56
0.764619	0.566667
0.76943	0.573333
0.774241	0.58
0.779053	0.586667
0.783864	0.593333
0.788675	0.6
0.5	0.225
0.504811	0.231458
0.509623	0.237917
0.514434	0.244375
0.519245	0.250833
0.524056	0.257292
0.528868	0.26375
0.533679	0.270208
0.53849	0.276667
0.543301	0.283125
0.548113	0.289583
0.552924	0.296042
0.557735	0.3025
0.562546	0.308958
0.567358	0.315417
0.572169	0.321875
0.57698	0.328333
0.581791	0.334792
0.586603	0.34125
0.591414	0.347708
0.596225	0.354167
0.601036	0.360625
0.605848	0.367083
0.610659	0.373542
0.61547	0.38
0.620281	0.386458
0.625093	0.392917
0.629904	0.399375
0.634715	0.405833
0.639526	0.412292
0.644338	0.41875
0.649149	0.425208
0.65396	0.431667
0.658771	0.438125
0.663583	0.444583
0.668394	0.451042
0.673205	0.4575
0.678016	0.463958
0.682828	0.470417
0.687639	0.476875
0.69245	0.483333
0.697261	0.489792
0.702073	0.49625
0.706884	0.502708
0.711695	0.509167
0.716506	0.515625
0.721318	0.522083
0.726129	0.528542
0.73094	0.535
0.735751	0.541458
0.740563	0.547917
0.745374	0.554375
0.750185	0.560833
0.754996	0.567292
0.759808	0.57375
0.764619	0.580208
0.76943	0.586667
0.774241	0.593125
0.779053	0.599583
0.783864	0.606042
0.788675	0.6125
0.5	0.25
0.504811	0.25625
0.509623	0.2625
0.514434	0.26875
0.519245	0.275
0.524056	0.28125
0.528868	0.2875
0.533679	0.29375
0.53849	0.3
0.543301	0.30625
0.548113	0.3125
0.552924	0.31875
0.557735	0.325
0.562546	0.33125
0.567358	0.3375
0.572169	0.34375
0.57698	0.35
0.581791	0.35625
0.586603	0.3625
0.591414	0.36875
0.596225	0.375
0.601036	0.38125
0.605848	0.3875
0.610659	0.39375
0.61547	0.4
0.620281	0.40625
0.625093	0.4125
0.629904	0.41875
0.634715	0.425
0.639526	0.43125
0.644338	0.4375
0.649149	0.44375
0.65396	0.45
0.658771	0.45625
0.663583	0.4625
0.668394	0.46875
0.673205	0.475
0.678016	0.48125
0.682828	0.4875
0.687639	0.49375
0.69245	0.5
0.697261	0.50625
0.702073	0.5125
0.706884	0.51875
0.711695	0.525
0.716506	0.53125
0.721318	0.5375
0.726129	0.54375
0.73094	0.55
0.735751	0.55625
0.740563	0.5625
0.745374	0.56875
0.750185	0.575
0.754996	0.58125
0.759808	0.5875
0.764619	0.59375
0.76943	0.6
0.774241	0.60625
0.779053	0.6125
0.783864	0.61875
0.788675	0.625
0.5	0.275
0.504811	0.281042
0.509623	0.287083
0.514434	0.293125
0.519245	0.299167
0.524056	0.305208
0.528868	0.31125
0.533679	0.317292
0.53849	0.323333
0.543301	0.329375
0.548113	0.335417
0.552924	0.341458
0.557735	0.3475
0.562546	0.353542
0.567358	0.359583
0.572169	0.365625
0.57698	0.371667
0.581791	0.377708
0.586603	0.38375
0.591414	0.389792
0.596225	0.395833
0.601036	0.401875
0.605848	0.407917
0.610659	0.413958
0.61547	0.42
0.620281	0.426042
0.625093	0.432083
0.629904	0.438125
0.634715	0.444167
0.639526	0.450208
0.644338	0.45625
0.649149	0.462292
0.65396	0.468333
0.658771	0.474375
0.663583	0.480417
0.668394	0.486458
0.673205	0.4925
0.678016	0.498542
0.682828	0.504583
0.687639	0.510625
0.69245	0.516667
0.697261	0.522708
0.702073	0.52875
0.706884	0.534792
0.711695	0.540833
0.716506	0.546875
0.721318	0.552917
0.726129	0.558958
0.73094	0.565
0.735751	0.571042
0.740563	0.577083
0.745374	0.583125
0.750185	0.589167
0.754996	0.595208
0.759808	0.60125
0.764619	0.607292
0.76943	0.613333
0.774241	0.619375
0.779053	0.625417
0.783864	0.631458
0.788675	0.6375
0.5	0.3
0.504811	0.305833
0.509623	0.311667
0.514434	0.3175
0.519245	0.323333
0.524056	0.329167
0.528868	0.335
0.533679	0.340833
0.53849	0.346667
0.543301	0.3525
0.548113	0.358333
0.552924	0.364167
0.557735	0.37
0.562546	0.375833
0.567358	0.381667
0.572169	0.3875
0.57698	0.393333
0.581791	0.399167
0.586603	0.405
0.591414	0.410833
0.596225	0.416667
0.601036	0.4225
0.605848	0.428333
0.610659	0.434167
0.61547	0.44
0.620281	0.445833
0.625093	0.451667
0.629904	0.4575
0.634715	0.463333
0.639526	0.469167
0.644338	0.475
0.649149	0.480833
0.65396	0.486667
0.658771	0.4925
0.663583	0.498333
0.668394	0.504167
0.673205	0.51
0.678016	0.515833
0.682828	0.521667
0.687639	0.5275
0.69245	0.533333
0.697261	0.539167
0.702073	0.545
0.706884	0.550833
0.711695	0.556667
0.716506	0.5625
0.721318	0.568333
0.726129	0.574167
0.73094	0.58
0.735751	0.585833
0.740563	0.591667
0.745374	0.5975
0.750185	0.603333
0.754996	0.609167
0.759808	0.615
0.764619	0.620833
0.76943	0.626667
0.774241	0.6325
0.779053	0.638333
0.783864	0.644167
0.788675	0.65
0.5	0.325
0.504811	0.330625
0.509623	0.33625
0.514434	0.341875
0.519245	0.3475
0.524056	0.353125
0.528868	0.35875
0.533679	0.364375
0.53849	0.37
0.543301	0.375625
0.548113	0.38125
0.552924	0.386875
0.557735	0.3925
0.562546	0.398125
0.567358	0.40375
0.572169	0.409375
0.57698	0.415
0.581791	0.420625
0.586603	0.42625
0.591414	0.431875
0.596225	0.4375
0.601036	0.443125
0.605848	0.44875
0.610659	0.454375
0.61547	0.46
0.620281	0.465625
0.625093	0.47125
0.629904	0.476875
0.634715	0.4825
0.639526	0.488125
0.644338	0.49375
0.649149	0.499375
0.65396	0.505
0.658771	0.510625
0.663583	0.51625
0.668394	0.521875
0.673205	0.5275
0.678016	0.533125
0.682828	0.53875
0.687639	0.544375
0.69245	0.55
0.697261	0.555625
0.702073	0.56125
0.706884	0.566875
0.711695	0.5725
0.716506	0.578125
0.721318	0.58375
0.726129	0.589375
0.73094	0.595
0.735751	0.600625
0.740563	0.60625
0.745374	0.611875
0.750185	0.6175
0.754996	0.623125
0.759808	0.62875
0.764619	0.634375
0.76943	0.64
0.774241	0.645625
0.779053	0.65125
0.783864	0.656875
0.788675	0.6625
0.5	0.35
0.504811	0.355417
0.509623	0.360833
0.514434	0.36625
0.519245	0.371667
0.524056	0.377083
0.528868	0.3825
0.533679	0.387917
0.53849	0.393333
0.543301	0.39875
0.548113	0.404167
0.552924	0.409583
0.557735	0.415
0.562546	0.420417
0.567358	0.425833
0.572169	0.43125
0.57698	0.436667
0.581791	0.442083
0.586603	0.4475
0.591414	0.452917
0.596225	0.458333
0.601036	0.46375
0.605848	0.469167
0.610659	0.474583
0.61547	0.48
0.620281	0.485417
0.625093	0.490833
0.629904	0.49625
0.634715	0.501667
0.639526	0.507083
0.644338	0.5125
0.649149	0.517917
0.65396	0.523333
0.658771	0.52875
0.663583	0.534167
0.668394	0.539583
0.673205	0.545
0.678016	0.550417
0.682828	0.555833
0.687639	0.56125
0.69245	0.566667
0.697261	0.572083
0.702073	0.5775
0.706884	0.582917
0.711695	0.588333
0.716506	0.59375
0.721318	0.599167
0.726129	0.604583
0.73094	0.61
0.735751	0.615417
0.740563	0.620833
0.745374	0.62625
0.750185	0.631667
0.754996	0.637083
0.759808	0.6425
0.764619	0.647917
0.76943	0.653333
0.774241	0.65875
0.779053	0.664167
0.783864	0.669583
0.788675	0.675
0.5	0.375
0.504811	0.380208
0.509623	0.385417
0.514434	0.390625
0.519245	0.395833
0.524056	0.401042
0.528868	0.40625
0.533679	0.411458
0.53849	0.416667
0.543301	0.421875
0.548113	0.427083
0.552924	0.432292
0.557735	0.4375
0.562546	0.442708
0.567358	0.447917
0.572169	0.453125
0.57698	0.458333
0.581791	0.463542
0.586603	0.46875
0.591414	0.473958
0.596225	0.479167
0.601036	0.484375
0.605848	0.489583
0.610659	0.494792
0.61547	0.5
0.620281	0.505208
0.625093	0.510417
0.629904	0.515625
0.634715	0.520833
0.639526	0.526042
0.644338	0.53125
0.649149	0.536458
0.65396	0.541667
0.658771	0.546875
0.663583	0.552083
0.668394	0.557292
0.673205	0.5625
0.678016	0.567708
0.682828	0.572917
0.687639	0.578125
0.69245	0.583333
0.697261	0.588542
0.702073	0.59375
0.706884	0.598958
0.711695	0.604167
0.716506	0.609375
0.721318	0.614583
0.726129	0.619792
0.73094	0.625
0.735751	0.630208
0.740563	0.635417
0.745374	0.640625
0.750185	0.645833
0.754996	0.651042
0.759808	0.65625
0.764619	0.661458
0.76943	0.666667
0.774241	0.671875
0.779053	0.677083
0.783864	0.682292
0.788675	0.6875
0.5	0.4
0.504811	0.405
0.509623	0.41
0.514434	0.415
0.519245	0.42
0.524056	0.425
0.528868	0.43
0.533679	0.435
0.53849	0.44
0.543301	0.445
0.548113	0.45
0.552924	0.455
0.557735	0.46
0.562546	0.465
0.567358	0.47
0.572169	0.475
0.57698	0.48
0.581791	0.485
0.586603	0.49
0.591414	0.495
0.596225	0.5
0.601036	0.505
0.605848	0.51
0.610659	0.515
0.61547	0.52
0.620281	0.525
0.625093	0.53
0.629904	0.535
0.634715	0.54
0.639526	0.545
0.644338	0.55
0.649149	0.555
0.65396	0.56
0.658771	0.565
0.663583	0.57
0.668394	0.575
0.673205	0.58
0.678016	0.585
0.682828	0.59
0.687639	0.595
0.69245	0.6
0.697261	0.605
0.702073	0.61
0.706884	0.615
0.711695	0.62
0.716506	0.625
0.721318	0.63
0.726129	0.635
0.73094	0.64
0.735751	0.645
0.740563	0.65
0.745374	0.655
0.750185	0.66
0.754996	0.665
0.759808	0.67
0.764619	0.675
0.76943	0.68
0.774241	0.685
0.779053	0.69
0.783864	0.695
0.788675	0.7
0.5	0.425
0.504811	0.429792
0.509623	0.434583
0.514434	0.439375
0.519245	0.444167
0.524056	0.448958
0.528868	0.45375
0.533679	0.458542
0.53849	0.463333
0.543301	0.468125
0.548113	0.472917
0.552924	0.477708
0.557735	0.4825
0.562546	0.487292
0.567358	0.492083
0.572169	0.496875
0.57698	0.501667
0.581791	0.506458
0.586603	0.51125
0.591414	0.516042
0.596225	0.520833
0.601036	0.525625
0.605848	0.530417
0.610659	0.535208
0.61547	0.54
0.620281	0.544792
0.625093	0.549583
0.629904	0.554375
0.634715	0.559167
0.639526	0.563958
0.644338	0.56875
0.649149	0.573542
0.65396	0.578333
0.658771	0.583125
0.663583	0.587917
0.668394	0.592708
0.673205	0.5975
0.678016	0.602292
0.682828	0.607083
0.687639	0.611875
0.69245	0.616667
0.697261	0.621458
0.702073	0.62625
0.706884	0.631042
0.711695	0.635833
0.716506	0.640625
0.721318	0.645417
0.726129	0.650208
0.73094	0.655
0.735751	0.659792
0.740563	0.664583
0.745374	0.669375
0.750185	0.674167
0.754996	0.678958
0.759808	0.68375
0.764619	0.688542
0.76943	0.693333
0.774241	0.698125
0.779053	0.702917
0.783864	0.707708
0.788675	0.7125
0.5	0.45
0.504811	0.454583
0.509623	0.459167
0.514434	0.46375
0.519245	0.468333
0.524056	0.472917
0.528868	0.4775
0.533679	0.482083
0.53849	0.486667
0.543301	0.49125
0.548113	0.495833
0.552924	0.500417
0.557735	0.505
0.562546	0.509583
0.567358	0.514167
0.572169	0.51875
0.57698	0.523333
0.581791	0.527917
0.586603	0.5325
0.591414	0.537083
0.596225	0.541667
0.601036	0.54625
0.605848	0.550833
0.610659	0.555417
0.61547	0.56
0.620281	0.564583
0.625093	0.569167
0.629904	0.57375
0.634715	0.578333
0.639526	0.582917
0.644338	0.5875
0.649149	0.592083
0.65396	0.596667
0.658771	0.60125
0.663583	0.605833
0.668394	0.610417
0.673205	0.615
0.678016	0.619583
0.682828	0.624167
0.687639	0.62875
0.69245	0.633333
0.697261	0.637917
0.702073	0.6425
0.706884	0.647083
0.711695	0.651667
0.716506	0.65625
0.721318	0.660833
0.726129	0.665417
0.73094	0.67
0.735751	0.674583
0.740563	0.679167
0.745374	0.68375
0.750185	0.688333
0.754996	0.692917
0.759808	0.6975
0.764619	0.702083
0.76943	0.706667
0.774241	0.71125
0.779053	0.715833
0.783864	0.720417
0.788675	0.725
0.5	0.475
0.504811	0.479375
0.509623	0.48375
0.514434	0.488125
0.519245	0.4925
0.524056	0.496875
0.528868	0.50125
0.533679	0.505625
0.53849	0.51
0.543301	0.514375
0.548113	0.51875
0.552924	0.523125
0.557735	0.5275
0.562546	0.531875
0.567358	0.53625
0.572169	0.540625
0.57698	0.545
0.581791	0.549375
0.586603	0.55375
0.591414	0.558125
0.596225	0.5625
0.601036	0.566875
0.605848	0.57125
0.610659	0.575625
0.61547	0.58
0.620281	0.584375
0.625093	0.58875
0.629904	0.593125
0.634715	0.5975
0.639526	0.601875
0.644338	0.60625
0.649149	0.610625
0.65396	0.615
0.658771	0.619375
0.663583	0.62375
0.668394	0.628125
0.673205	0.6325
0.678016	0.636875
0.682828	0.64125
0.687639	0.645625
0.69245	0.65
0.697261	0.654375
0.702073	0.65875
0.706884	0.663125
0.711695	0.6675
0.716506	0.671875
0.721318	0.67625
0.726129	0.680625
0.73094	0.685
0.735751	0.689375
0.740563	0.69375
0.745374	0.698125
0.750185	0.7025
0.754996	0.706875
0.759808	0.71125
0.764619	0.715625
0.76943	0.72
0.774241	0.724375
0.779053	0.72875
0.783864	0.733125
0.788675	0.7375
0.5	0.5
0.504811	0.504167
0.509623	0.508333
0.514434	0.5125
0.519245	0.516667
0.524056	0.520833
0.528868	0.525
0.533679	0.529167
0.53849	0.533333
0.543301	0.5375
0.548113	0.541667
0.552924	0.545833
0.557735	0.55
0.562546	0.554167
0.567358	0.558333
0.572169	0.5625
0.57698	0.566667
0.581791	0.570833
0.586603	0.575
0.591414	0.579167
0.596225	0.583333
0.601036	0.5875
0.605848	0.591667
0.610659	0.595833
0.61547	0.6
0.620281	0.604167
0.625093	0.608333
0.629904	0.6125
0.634715	0.616667
0.639526	0.620833
0.644338	0.625
0.649149	0.629167
0.65396	0.633333
0.658771	0.6375
0.663583	0.641667
0.668394	0.645833
0.673205	0.65
0.678016	0.654167
0.682828	0.658333
0.687639	0.6625
0.69245	0.666667
0.697261	0.670833
0.702073	0.675
0.706884	0.679167
0.711695	0.683333
0.716506	0.6875
0.721318	0.691667
0.726129	0.695833
0.73094	0.7
0.735751	0.704167
0.740563	0.708333
0.745374	0.7125
0.750185	0.716667
0.754996	0.720833
0.759808	0.725
0.764619	0.729167
0.76943	0.733333
0.774241	0.7375
0.779053	0.741667
0.783864	0.745833
0.788675	0.75
0.5	0.525
0.504811	0.528958
0.509623	0.532917
0.514434	0.536875
0.519245	0.540833
0.524056	0.544792
0.528868	0.54875
0.533679	0.552708
0.53849	0.556667
0.543301	0.560625
0.548113	0.564583
0.552924	0.568542
0.557735	0.5725
0.562546	0.576458
0.567358	0.580417
0.572169	0.584375
0.57698	0.588333
0.581791	0.592292
0.586603	0.59625
0.591414	0.600208
0.596225	0.604167
0.601036	0.608125
0.605848	0.612083
0.610659	0.616042
0.61547	0.62
0.620281	0.623958
0.625093	0.627917
0.629904	0.631875
0.634715	0.635833
0.639526	0.639792
0.644338	0.64375
0.649149	0.647708
0.65396	0.651667
0.658771	0.655625
0.663583	0.659583
0.668394	0.663542
0.673205	0.6675
0.678016	0.671458
0.682828	0.675417
0.687639	0.679375
0.69245	0.683333
0.697261	0.687292
0.702073	0.69125
0.706884	0.695208
0.711695	0.699167
0.716506	0.703125
0.721318	0.707083
0.726129	0.711042
0.73094	0.715
0.735751	0.718958
0.740563	0.722917
0.745374	0.726875
0.750185	0.730833
0.754996	0.734792
0.759808	0.73875
0.764619	0.742708
0.76943	0.746667
0.774241	0.750625
0.779053	0.754583
0.783864	0.758542
0.788675	0.7625
0.5	0.55
0.504811	0.55375
0.509623	0.5575
0.514434	0.56125
0.519245	0.565
0.524056	0.56875
0.528868	0.5725
0.533679	0.57625
0.53849	0.58
0.543301	0.58375
0.548113	0.5875
0.552924	0.59125
0.557735	0.595
0.562546	0.59875
0.567358	0.6025
0.572169	0.60625
0.57698	0.61
0.581791	0.61375
0.586603	0.6175
0.591414	0.62125
0.596225	0.625
0.601036	0.62875
0.605848	0.6325
0.610659	0.63625
0.61547	0.64
0.620281	0.64375
0.625093	0.6475
0.629904	0.65125
0.634715	0.655
0.639526	0.65875
0.644338	0.6625
0.649149	0.66625
0.65396	0.67
0.658771	0.67375
0.663583	0.6775
0.668394	0.68125
0.673205	0.685
0.678016	0.68875
0.682828	0.6925
0.687639	0.69625
0.69245	0.7
0.697261	0.70375
0.702073	0.7075
0.706884	0.71125
0.711695	0.715
0.716506	0.71875
0.721318	0.7225
0.726129	0.72625
0.73094	0.73
0.735751	0.73375
0.740563	0.7375
0.745374	0.74125
0.750185	0.745
0.754996	0.74875
0.759808	0.7525
0.764619	0.75625
0.76943	0.76
0.774241	0.76375
0.779053	0.7675
0.783864	0.77125
0.788675	0.775
0.5	0.575
0.504811	0.578542
0.509623	0.582083
0.514434	0.585625
0.519245	0.589167
0.524056	0.592708
0.528868	0.59625
0.533679	0.599792
0.53849	0.603333
0.543301	0.606875
0.548113	0.610417
0.552924	0.613958
0.557735	0.6175
0.562546	0.621042
0.567358	0.624583
0.572169	0.628125
0.57698	0.631667
0.581791	0.635208
0.586603	0.63875
0.591414	0.642292
0.596225	0.645833
0.601036	0.649375
0.605848	0.652917
0.610659	0.656458
0.61547	0.66
0.620281	0.663542
0.625093	0.667083
0.629904	0.670625
0.634715	0.674167
0.639526	0.677708
0.644338	0.68125
0.649149	0.684792
0.65396	0.688333
0.658771	0.691875
0.663583	0.695417
0.668394	0.698958
0.673205	0.7025
0.678016	0.706042
0.682828	0.709583
0.687639	0.713125
0.69245	0.716667
0.697261	0.720208
0.702073	0.72375
0.706884	0.727292
0.711695	0.730833
0.716506	0.734375
0.721318	0.737917
0.726129	0.741458
0.73094	0.745
0.735751	0.748542
0.740563	0.752083
0.745374	0.755625
0.750185	0.759167
0.754996	0.762708
0.759808	0.76625
0.764619	0.769792
0.76943	0.773333
0.774241	0.776875
0.779053	0.780417
0.783864	0.783958
0.788675	0.7875
0.5	0.6
0.504811	0.603333
0.509623	0.606667
0.514434	0.61
0.519245	0.613333
0.524056	0.616667
0.528868	0.62
0.533679	0.623333
0.53849	0.626667
0.543301	0.63
0.548113	0.633333
0.552924	0.636667
0.557735	0.64
0.562546	0.643333
0.567358	0.646667
0.572169	0.65
0.57698	0.653333
0.581791	0.656667
0.586603	0.66
0.591414	0.663333
0.596225	0.666667
0.601036	0.67
0.605848	0.673333
0.610659	0.676667
0.61547	0.68
0.620281	0.683333
0.625093	0.686667
0.629904	0.69
0.634715	0.693333
0.639526	0.696667
0.644338	0.7
0.649149	0.703333
0.65396	0.706667
0.658771	0.71
0.663583	0.713333
0.668394	0.716667
0.673205	0.72
0.678016	0.723333
0.682828	0.726667
0.687639	0.73
0.69245	0.733333
0.697261	0.736667
0.702073	0.74
0.706884	0.743333
0.711695	0.746667
0.716506	0.75
0.721318	0.753333
0.726129	0.756667
0.73094	0.76
0.735751	0.763333
0.740563	0.766667
0.745374	0.77
0.750185	0.773333
0.754996	0.776667
0.759808	0.78
0.764619	0.783333
0.76943	0.786667
0.774241	0.79
0.779053	0.793333
0.783864	0.796667
0.788675	0.8
0.5	0.625
0.504811	0.628125
0.509623	0.63125
0.514434	0.634375
0.519245	0.6375
0.524056	0.640625
0.528868	0.64375
0.533679	0.646875
0.53849	0.65
0.543301	0.653125
0.548113	0.65625
0.552924	0.659375
0.557735	0.6625
0.562546	0.665625
0.567358	0.66875
0.572169	0.671875
0.57698	0.675
0.581791	0.678125
0.586603	0.68125
0.591414	0.684375
0.596225	0.6875
0.601036	0.690625
0.605848	0.69375
0.610659	0.696875
0.61547	0.7
0.620281	0.703125
0.625093	0.70625
0.629904	0.709375
0.634715	0.7125
0.639526	0.715625
0.644338	0.71875
0.649149	0.721875
0.65396	0.725
0.658771	0.728125
0.663583	0.73125
0.668394	0.734375
0.673205	0.7375
0.678016	0.740625
0.682828	0.74375
0.687639	0.746875
0.69245	0.75
0.697261	0.753125
0.702073	0.75625
0.706884	0.759375
0.711695	0.7625
0.716506	0.765625
0.721318	0.76875
0.726129	0.771875
0.73094	0.775
0.735751	0.778125
0.740563	0.78125
0.745374	0.784375
0.750185	0.7875
0.754996	0.790625
0.759808	0.79375
0.764619	0.796875
0.76943	0.8
0.774241	0.803125
0.779053	0.80625
0.783864	0.809375
0.788675	0.8125
0.5	0.65
0.504811	0.652917
0.509623	0.655833
0.514434	0.65875
0.519245	0.661667
0.524056	0.664583
0.528868	0.6675
0.533679	0.670417
0.53849	0.673333
0.543301	0.67625
0.548113	0.679167
0.552924	0.682083
0.557735	0.685
0.562546	0.687917
0.567358	0.690833
0.572169	0.69375
0.57698	0.696667
0.581791	0.699583
0.586603	0.7025
0.591414	0.705417
0.596225	0.708333
0.601036	0.71125
0.605848	0.714167
0.610659	0.717083
0.61547	0.72
0.620281	0.722917
0.625093	0.725833
0.629904	0.72875
0.634715	0.731667
0.639526	0.734583
0.644338	0.7375
0.649149	0.740417
0.65396	0.743333
0.658771	0.74625
0.663583	0.749167
0.668394	0.752083
0.673205	0.755
0.678016	0.757917
0.682828	0.760833
0.687639	0.76375
0.69245	0.766667
0.697261	0.769583
0.702073	0.7725
0.706884	0.775417
0.711695	0.778333
0.716506	0.78125
0.721318	0.784167
0.726129	0.787083
0.73094	0.79
0.735751	0.792917
0.740563	0.795833
0.745374	0.79875
0.750185	0.801667
0.754996	0.804583
0.759808	0.8075
0.764619	0.810417
0.76943	0.813333
0.774241	0.81625
0.779053	0.819167
0.783864	0.822083
0.788675	0.825
0.5	0.675
0.504811	0.677708
0.509623	0.680417
0.514434	0.683125
0.519245	0.685833
0.524056	0.688542
0.528868	0.69125
0.533679	0.693958
0.53849	0.696667
0.543301	0.699375
0.548113	0.702083
0.552924	0.704792
0.557735	0.7075
0.562546	0.710208
0.567358	0.712917
0.572169	0.715625
0.57698	0.718333
0.581791	0.721042
0.586603	0.72375
0.591414	0.726458
0.596225	0.729167
0.601036	0.731875
0.605848	0.734583
0.610659	0.737292
0.61547	0.74
0.620281	0.742708
0.625093	0.745417
0.629904	0.748125
0.634715	0.750833
0.639526	0.753542
0.644338	0.75625
0.649149	0.758958
0.65396	0.761667
0.658771	0.764375
0.663583	0.767083
0.668394	0.769792
0.673205	0.7725
0.678016	0.775208
0.682828	0.777917
0.687639	0.780625
0.69245	0.783333
0.697261	0.786042
0.702073	0.78875
0.706884	0.791458
0.711695	0.794167
0.716506	0.796875
0.721318	0.799583
0.726129	0.802292
0.73094	0.805
0.735751	0.807708
0.740563	0.810417
0.745374	0.813125
0.750185	0.815833
0.754996	0.818542
0.759808	0.82125
0.764619	0.823958
0.76943	0.826667
0.774241	0.829375
0.779053	0.832083
0.783864	0.834792
0.788675	0.8375
0.5	0.7
0.504811	0.7025
0.509623	0.705
0.514434	0.7075
0.519245	0.71
0.524056	0.7125
0.528868	0.715
0.533679	0.7175
0.53849	0.72
0.543301	0.7225
0.548113	0.725
0.552924	0.7275
0.557735	0.73
0.562546	0.7325
0.567358	0.735
0.572169	0.7375
0.57698	0.74
0.581791	0.7425
0.586603	0.745
0.591414	0.7475
0.596225	0.75
0.601036	0.7525
0.605848	0.755
0.610659	0.7575
0.61547	0.76
0.620281	0.7625
0.625093	0.765
0.629904	0.7675
0.634715	0.77
0.639526	0.7725
0.644338	0.775
0.649149	0.7775
0.65396	0.78
0.658771	0.7825
0.663583	0.785
0.668394	0.7875
0.673205	0.79
0.678016	0.7925
0.682828	0.795
0.687639	0.7975
0.69245	0.8
0.697261	0.8025
0.702073	0.805
0.706884	0.8075
0.711695	0.81
0.716506	0.8125
0.721318	0.815
0.726129	0.8175
0.73094	0.82
0.735751	0.8225
0.740563	0.825
0.745374	0.8275
0.750185	0.83
0.754996	0.8325
0.759808	0.835
0.764619	0.8375
0.76943	0.84
0.774241	0.8425
0.779053	0.845
0.783864	0.8475
0.788675	0.85
0.5	0.725
0.504811	0.727292
0.509623	0.729583
0.514434	0.731875
0.519245	0.734167
0.524056	0.736458
0.528868	0.73875
0.533679	0.741042
0.53849	0.743333
0.543301	0.745625
0.548113	0.747917
0.552924	0.750208
0.557735	0.7525
0.562546	0.754792
0.567358	0.757083
0.572169	0.759375
0.57698	0.761667
0.581791	0.763958